<VTKFile type="UnstructuredGrid" version="0.1">
<UnstructuredGrid>
<Piece  NumberOfPoints="    1599" NumberOfCells="     267">
<Points>
<DataArray type="Float64" NumberOfComponents="3" format="ascii">
13.8346 -13.0994 0.0
14.6221 -10.9863 0.0
13.1651 -10.2469 0.0
10.8436 -9.42042 0.0
9.37006 -11.0766 0.0
12.3272 -15.5153 0.0
13.0795 -15.1898 0.0
18.2292 -21.1286 0.0
17.6807 -18.4426 0.0
14.9264 -18.3864 0.0
11.8488 -21.3226 0.0
15.0927 -24.6181 0.0
16.7147 -23.138 0.0
20.565 -28.4938 0.0
19.301 -31.5674 0.0
22.1226 -31.5172 0.0
26.0215 -25.4833 0.0
25.7507 -24.748 0.0
22.9436 -26.521 0.0
-36.2594 15.0944 0.0
-33.3679 14.5497 0.0
-31.1185 17.8029 0.0
-34.5954 20.4862 0.0
-35.1856 19.3533 0.0
18.9741 -2.69322 0.0
19.2331 -4.39916 0.0
22.1689 -3.13364 0.0
22.5769 1.20091 0.0
18.6465 1.46724 0.0
23.2757 5.72134 0.0
22.9682 1.38199 0.0
22.5602 -2.95257 0.0
25.1313 -4.3092 0.0
26.5193 -0.522838 0.0
25.9236 2.89841 0.0
24.7317 6.11064 0.0
7.38668 34.8359 0.0
4.28157 33.5461 0.0
3.80406 31.5121 0.0
5.17382 30.9367 0.0
7.3921 29.6479 0.0
9.19653 31.6514 0.0
10.9176 33.7207 0.0
9.88131 34.142 0.0
-18.4464 -37.6222 0.0
-21.9915 -39.6835 0.0
-18.7194 -42.1949 0.0
-15.1042 -44.2465 0.0
-12.8752 -39.9909 0.0
-14.5895 -38.9109 0.0
-4.82151 -24.226 0.0
-8.42359 -22.2283 0.0
-10.5685 -22.407 0.0
-12.7718 -25.4819 0.0
-10.4901 -27.7567 0.0
-7.45989 -28.8018 0.0
-17.3626 22.8241 0.0
-19.8097 21.8732 0.0
-21.9273 17.8675 0.0
-18.511 15.4552 0.0
-15.8869 17.9964 0.0
-37.5509 -25.1211 0.0
-34.7888 -21.3868 0.0
-35.6297 -19.3701 0.0
-38.1128 -16.8489 0.0
-41.0577 -19.7565 0.0
-39.9556 -22.3342 0.0
-12.6511 -10.3437 0.0
-13.4153 -6.78518 0.0
-16.9846 -4.94133 0.0
-18.8089 -7.33404 0.0
-21.0239 23.5486 0.0
-19.6429 22.5037 0.0
-17.1959 23.4546 0.0
-14.7015 24.2869 0.0
-12.3336 27.2505 0.0
-15.8877 27.6591 0.0
-19.3638 26.749 0.0
0.136535 -8.7846 0.0
0.901944 -8.03955 0.0
1.38645 -6.03982 0.0
-1.45368 -3.78803 0.0
-4.20385 -3.26342 0.0
-5.97313 -5.11203 0.0
19.1525 -36.5526 0.0
22.6125 -35.068 0.0
23.9134 -33.9352 0.0
21.8837 -32.0722 0.0
19.0621 -32.1223 0.0
17.8013 -33.5981 0.0
16.269 -34.8477 0.0
-23.1914 -5.70859 0.0
-27.7511 -9.19085 0.0
-25.7621 -11.5648 0.0
-25.0612 -11.4799 0.0
-22.2511 -9.00059 0.0
-9.17488 14.5266 0.0
-7.68747 16.1212 0.0
-6.14119 17.5543 0.0
-8.52443 19.5424 0.0
-12.2217 15.1044 0.0
38.2432 -12.4837 0.0
39.3198 -10.0514 0.0
39.2993 -7.24141 0.0
38.5499 -5.27959 0.0
37.5719 -5.99076 0.0
35.7847 -7.93662 0.0
35.2063 -10.9883 0.0
-4.12137 44.5006 0.0
2.06841 42.3213 0.0
3.17946 44.6063 0.0
1.92299 44.8251 0.0
-2.80216 44.8929 0.0
8.76817 21.4176 0.0
6.15293 19.7801 0.0
8.74123 17.5054 0.0
11.4152 15.2477 0.0
14.2102 16.632 0.0
12.1311 19.6474 0.0
11.1767 20.2258 0.0
-32.5797 8.93224 0.0
-33.3309 5.85103 0.0
-30.9612 2.79451 0.0
-29.2679 5.47232 0.0
-30.7555 11.1921 0.0
-32.0931 10.2924 0.0
-28.4936 21.4608 0.0
-28.1961 24.4483 0.0
-31.9784 23.8383 0.0
-34.2962 20.9283 0.0
-30.8193 18.245 0.0
11.3985 13.7082 0.0
9.77253 10.9666 0.0
11.3564 7.58766 0.0
12.9946 6.79626 0.0
13.9329 7.73098 0.0
15.3046 9.44912 0.0
29.2437 -20.2627 0.0
26.5547 -24.0672 0.0
26.8254 -24.8024 0.0
28.5265 -26.2244 0.0
34.6234 -19.9237 0.0
34.7752 -18.6071 0.0
32.8612 -17.8788 0.0
-12.4879 47.4085 0.0
-15.2056 44.6678 0.0
-16.459 42.7496 0.0
-14.1201 42.8269 0.0
-10.7713 43.2704 0.0
-11.5028 47.9828 0.0
4.33583 -40.4504 0.0
6.5169 -37.7581 0.0
3.58376 -35.6203 0.0
0.866581 -35.6201 0.0
-1.52636 -40.1815 0.0
0.876604 -41.1369 0.0
-13.0274 7.23721 0.0
-12.1372 8.74475 0.0
-15.6856 11.933 0.0
-17.7731 9.18416 0.0
-17.5177 7.13096 0.0
42.8653 -15.8805 0.0
43.0835 -11.8903 0.0
39.6243 -10.5113 0.0
38.5477 -12.9436 0.0
37.3632 -15.3263 0.0
40.0554 -16.2148 0.0
-38.428 8.4438 0.0
-33.0155 9.37675 0.0
-32.5288 10.7369 0.0
-33.5391 13.9623 0.0
-36.4306 14.507 0.0
-38.5262 11.47 0.0
14.5795 -18.1108 0.0
13.0596 -15.8163 0.0
12.3073 -16.1418 0.0
9.59453 -17.1272 0.0
10.6812 -21.4866 0.0
11.5019 -21.047 0.0
11.7324 39.196 0.0
14.229 38.3698 0.0
10.6636 42.934 0.0
7.41472 42.9299 0.0
9.18821 39.8918 0.0
-1.81051 11.971 0.0
4.2912 9.9189 0.0
5.75119 12.5218 0.0
4.31943 13.5057 0.0
1.50084 14.6284 0.0
-1.80515 13.0456 0.0
4.16067 9.57506 0.0
-1.94104 11.6271 0.0
-1.67142 7.5044 0.0
1.19794 6.89914 0.0
2.81124 6.44756 0.0
3.84328 9.07016 0.0
-32.431 -27.4557 0.0
-31.4582 -26.3746 0.0
-33.0181 -24.147 0.0
-34.4297 -21.8381 0.0
-37.1919 -25.5725 0.0
-34.3379 -27.9489 0.0
-13.8185 -13.9983 0.0
-11.239 -17.2127 0.0
-7.49929 -14.2611 0.0
-8.98921 -13.2666 0.0
-11.7554 -12.3038 0.0
-11.898 27.6145 0.0
-9.97581 28.7089 0.0
-8.6388 29.4516 0.0
-14.9296 30.4483 0.0
-15.4521 28.0231 0.0
-36.4029 -9.35168 0.0
-38.8855 -7.49739 0.0
-39.7645 -9.20412 0.0
-39.1765 -11.9989 0.0
-38.7274 -14.4377 0.0
-34.8615 -12.8062 0.0
-7.75158 -21.0408 0.0
-7.85178 -21.8788 0.0
-4.24971 -23.8765 0.0
-2.29034 -24.267 0.0
1.92512 -22.5191 0.0
1.92374 -21.2494 0.0
-1.65998 -20.3009 0.0
-5.20174 -19.1501 0.0
-21.3391 -16.4647 0.0
-17.5116 -15.9922 0.0
-17.4793 -13.9074 0.0
-20.2836 -10.7026 0.0
-21.8647 -9.44069 0.0
-24.6747 -11.92 0.0
26.1149 9.85422 0.0
25.0808 6.71845 0.0
26.2727 3.50622 0.0
31.4422 5.56262 0.0
30.0574 8.89285 0.0
11.6837 14.0154 0.0
15.5899 9.75637 0.0
18.4957 11.5218 0.0
17.033 14.5408 0.0
14.6943 16.0974 0.0
11.8993 14.7131 0.0
-5.20049 -33.0059 0.0
-4.73374 -30.8943 0.0
-7.47058 -29.3928 0.0
-10.5008 -28.3476 0.0
-11.9446 -30.0485 0.0
-13.2298 -31.7992 0.0
-10.4695 -33.3315 0.0
-34.308 -31.0956 0.0
-34.5506 -28.1723 0.0
-37.4047 -25.7959 0.0
-39.8094 -23.0089 0.0
-38.0502 -26.5296 0.0
-36.36 -28.9487 0.0
24.7539 -37.3133 0.0
17.9834 -40.8283 0.0
16.9794 -43.1393 0.0
19.2734 -42.2208 0.0
23.6765 -39.8167 0.0
26.3669 -37.9369 0.0
14.6117 -24.9902 0.0
11.3678 -21.6947 0.0
10.5471 -22.1343 0.0
7.01796 -23.9782 0.0
7.65361 -27.1439 0.0
9.73296 -27.3523 0.0
13.1567 -26.5233 0.0
41.7185 9.58771 0.0
39.9381 13.4744 0.0
36.4634 13.14 0.0
37.0312 9.59594 0.0
37.3105 7.97285 0.0
42.0136 6.74778 0.0
-38.4368 7.96761 0.0
-37.7652 4.99823 0.0
-34.9736 3.83015 0.0
-33.7755 5.81935 0.0
-33.0242 8.90056 0.0
6.38091 12.6985 0.0
9.3769 11.3794 0.0
11.0028 14.121 0.0
11.2184 14.8187 0.0
8.5445 17.0765 0.0
4.94915 13.6825 0.0
33.1423 28.4107 0.0
30.5777 30.1318 0.0
30.9879 28.1938 0.0
31.5618 26.4656 0.0
34.0628 23.6163 0.0
37.0403 21.7522 0.0
36.4552 23.3206 0.0
35.0152 25.9341 0.0
-9.90301 -45.6502 0.0
-6.18474 -47.2404 0.0
-4.36373 -47.6681 0.0
-1.59793 -47.3485 0.0
-4.67124 -43.2927 0.0
-7.48693 -43.0775 0.0
-20.9713 29.704 0.0
-23.4665 28.7872 0.0
-26.3962 26.0399 0.0
-23.9601 22.1949 0.0
-21.6033 23.6324 0.0
-19.9432 26.8328 0.0
-20.0743 29.9234 0.0
-23.0746 -3.39266 0.0
-22.7655 -5.32161 0.0
-21.8252 -8.61361 0.0
-20.2441 -9.8755 0.0
-19.3068 -7.08752 0.0
-17.4825 -4.69481 0.0
-19.1509 -1.70788 0.0
-20.0271 -0.741918 0.0
0.121826 -15.3145 0.0
-1.15939 -19.9291 0.0
2.42433 -20.8776 0.0
5.4307 -17.6233 0.0
4.41424 -16.0482 0.0
2.23875 -15.9276 0.0
-2.89285 20.064 0.0
-5.67128 17.6386 0.0
-7.21757 16.2055 0.0
-5.44877 15.0691 0.0
-1.32666 19.7283 0.0
0.431248 -35.527 0.0
-0.706402 -35.3812 0.0
-2.05709 -35.0722 0.0
-4.3025 -38.9287 0.0
-1.96169 -40.0883 0.0
-40.0196 9.77055 0.0
-41.0184 5.68154 0.0
-40.052 2.69559 0.0
-38.1541 4.99368 0.0
-38.8257 7.96307 0.0
-38.9239 10.9892 0.0
4.29595 4.78734 0.0
7.67251 3.6556 0.0
9.40251 5.31319 0.0
4.36965 8.76975 0.0
3.33761 6.14715 0.0
-0.405359 34.5401 0.0
-3.89915 35.409 0.0
-4.19342 35.3125 0.0
-4.33465 30.2839 0.0
-2.21691 30.1373 0.0
0.345215 30.9111 0.0
0.211641 34.4511 0.0
-0.99646 -3.50105 0.0
1.84367 -5.75284 0.0
6.17678 -4.10184 0.0
6.59842 -2.68378 0.0
1.94359 0.314654 0.0
-0.0178621 -1.38153 0.0
8.28212 -0.116494 0.0
7.27133 -2.7002 0.0
6.8497 -4.11825 0.0
7.60975 -4.51432 0.0
10.0959 -5.68819 0.0
12.4022 -2.29637 0.0
10.1987 -1.54075 0.0
12.7615 -2.55622 0.0
10.4552 -5.94804 0.0
10.9309 -8.77545 0.0
13.2524 -9.60191 0.0
15.7847 -2.81026 0.0
13.4974 -1.80685 0.0
-43.4829 -0.960427 0.0
-39.7813 -0.596955 0.0
-40.2634 2.1994 0.0
-41.2299 5.18534 0.0
-43.0979 3.36202 0.0
-30.8553 -26.8579 0.0
-31.828 -27.939 0.0
-27.3414 -33.0177 0.0
-24.4041 -33.0058 0.0
-25.9411 -31.2337 0.0
-27.1649 -29.1693 0.0
1.15578 -45.6069 0.0
-0.909277 -47.4877 0.0
-3.67508 -47.8073 0.0
-1.72682 -47.9587 0.0
1.54935 -47.5074 0.0
4.49552 -46.4936 0.0
20.2276 16.6254 0.0
22.1912 16.9494 0.0
21.3491 20.9537 0.0
19.4437 22.4002 0.0
16.9941 23.8059 0.0
15.3568 21.5382 0.0
-16.877 -4.45922 0.0
-13.3077 -6.30307 0.0
-11.8025 -4.81199 0.0
-11.3792 -2.04482 0.0
-12.5713 0.895091 0.0
-15.6039 -0.286159 0.0
-18.5454 -1.47229 0.0
-1.61112 -3.32456 0.0
-0.632522 -1.20504 0.0
-3.06641 0.264575 0.0
-5.36261 1.71258 0.0
-5.91247 -1.21444 0.0
-4.36129 -2.79995 0.0
-13.7181 -32.1057 0.0
-16.416 -30.9101 0.0
-17.5066 -33.8636 0.0
-11.9655 -37.5864 0.0
-10.4897 -37.0888 0.0
-10.9579 -33.638 0.0
-28.37 -22.572 0.0
-29.4207 -21.3413 0.0
-32.4853 -24.1203 0.0
-30.9254 -26.3479 0.0
-27.235 -28.6592 0.0
-25.6078 -26.3136 0.0
23.2775 -25.7779 0.0
26.0845 -24.0049 0.0
28.7735 -20.2004 0.0
27.9441 -16.9207 0.0
25.8733 -18.2245 0.0
23.9758 -19.9443 0.0
23.4743 -22.8871 0.0
12.4609 20.1443 0.0
14.8169 21.8573 0.0
16.4541 24.125 0.0
14.4906 25.9305 0.0
12.4969 26.3152 0.0
11.5066 20.7228 0.0
35.5068 -7.30299 0.0
37.294 -5.35713 0.0
35.4085 1.9154 0.0
33.1662 1.71884 0.0
32.816 -1.47923 0.0
32.8611 -5.65618 0.0
42.4426 3.11372 0.0
43.5651 0.287736 0.0
45.323 -1.84221 0.0
45.4064 1.58887 0.0
44.5914 5.74149 0.0
43.8178 7.56019 0.0
42.181 8.92556 0.0
42.4761 6.08563 0.0
-12.7749 37.7467 0.0
-15.4854 37.395 0.0
-16.0278 34.9652 0.0
-16.9285 32.5917 0.0
-14.7251 33.5312 0.0
-13.5057 34.0226 0.0
-4.33074 22.6617 0.0
-2.68121 20.488 0.0
-1.11503 20.1523 0.0
0.236797 19.768 0.0
-1.17683 21.9909 0.0
-2.59041 24.2043 0.0
30.6011 -35.1193 0.0
32.7326 -33.2653 0.0
35.6614 -30.2148 0.0
36.29 -29.1978 0.0
34.1013 -28.271 0.0
29.6843 -34.5777 0.0
-23.4722 -20.0519 0.0
-22.409 -21.5788 0.0
-16.1758 -18.5049 0.0
-17.425 -16.5418 0.0
-21.2525 -17.0143 0.0
3.80832 24.9518 0.0
2.93264 25.1975 0.0
[...]
<CellData Scalars="cell variable 4" Vectors="cell vector">
<DataArray type="Float64" NumberOfComponents="3" Name="cell vector" format="ascii">
0 0 0
0 0 0
0 0 0
0 0 0
0 0 0
0 0 0
0 0 0
0 0 0
0 0 0
0 0 0
0 0 0
0 0 0
0 0 0
0 0 0
0 0 0
0 0 0
0 0 0
0 0 0
0 0 0
0 0 0
0 0 0
0 0 0
0 0 0
0 0 0
0 0 0
0 0 0
0 0 0
0 0 0
0 0 0
0 0 0
0 0 0
0 0 0
0 0 0
0 0 0
0 0 0
0 0 0
0 0 0
0 0 0
0 0 0
0 0 0
0 0 0
0 0 0
0 0 0
0 0 0
0 0 0
0 0 0
0 0 0
0 0 0
0 0 0
0 0 0
0 0 0
0 0 0
0 0 0
0 0 0
0 0 0
0 0 0
0 0 0
0 0 0
0 0 0
0 0 0
0 0 0
0 0 0
0 0 0
0 0 0
0 0 0
0 0 0
0 0 0
0 0 0
0 0 0
0 0 0
0 0 0
0 0 0
0 0 0
0 0 0
0 0 0
0 0 0
0 0 0
0 0 0
0 0 0
0 0 0
0 0 0
0 0 0
0 0 0
0 0 0
0 0 0
0 0 0
0 0 0
0 0 0
0 0 0
0 0 0
0 0 0
0 0 0
0 0 0
0 0 0
0 0 0
0 0 0
0 0 0
0 0 0
0 0 0
0 0 0
0 0 0
0 0 0
0 0 0
0 0 0
0 0 0
0 0 0
0 0 0
0 0 0
0 0 0
0 0 0
0 0 0
0 0 0
0 0 0
0 0 0
0 0 0
0 0 0
0 0 0
0 0 0
0 0 0
0 0 0
0 0 0
0 0 0
0 0 0
0 0 0
0 0 0
0 0 0
0 0 0
0 0 0
0 0 0
0 0 0
0 0 0
0 0 0
0 0 0
0 0 0
0 0 0
0 0 0
0 0 0
0 0 0
0 0 0
0 0 0
0 0 0
0 0 0
0 0 0
0 0 0
0 0 0
0 0 0
0 0 0
0 0 0
0 0 0
0 0 0
0 0 0
0 0 0
0 0 0
0 0 0
0 0 0
0 0 0
0 0 0
0 0 0
0 0 0
0 0 0
0 0 0
0 0 0
0 0 0
0 0 0
0 0 0
0 0 0
0 0 0
0 0 0
0 0 0
0 0 0
0 0 0
0 0 0
0 0 0
0 0 0
0 0 0
0 0 0
0 0 0
0 0 0
0 0 0
0 0 0
0 0 0
0 0 0
0 0 0
0 0 0
0 0 0
0 0 0
0 0 0
0 0 0
0 0 0
0 0 0
0 0 0
0 0 0
0 0 0
0 0 0
0 0 0
0 0 0
0 0 0
0 0 0
0 0 0
0 0 0
0 0 0
0 0 0
0 0 0
0 0 0
0 0 0
0 0 0
0 0 0
0 0 0
0 0 0
0 0 0
0 0 0
0 0 0
0 0 0
0 0 0
0 0 0
0 0 0
0 0 0
0 0 0
0 0 0
0 0 0
0 0 0
0 0 0
0 0 0
0 0 0
0 0 0
0 0 0
0 0 0
0 0 0
0 0 0
0 0 0
0 0 0
0 0 0
0 0 0
0 0 0
0 0 0
0 0 0
0 0 0
0 0 0
0 0 0
0 0 0
0 0 0
0 0 0
0 0 0
0 0 0
0 0 0
0 0 0
0 0 0
0 0 0
0 0 0
0 0 0
0 0 0
0 0 0
0 0 0
0 0 0
0 0 0
0 0 0
0 0 0
0 0 0
0 0 0
0 0 0
0 0 0
0 0 0
0 0 0
0 0 0
0 0 0
0 0 0
0 0 0
</DataArray>
<DataArray type="Float64" Name="cell vector length" format="ascii">
0 0 0 0 0 0 0 0 0 0 0 0 0 0 0 0 0 0 0 0 0 0 0 0 0 0 0 0 0 0 0 0 0 0 0 0 0 0 0 0 0 0 0 0 0 0 0 0 0 0 0 0 0 0 0 0 0 0 0 0 0 0 0 0 0 0 0 0 0 0 0 0 0 0 0 0 0 0 0 0 0 0 0 0 0 0 0 0 0 0 0 0 0 0 0 0 0 0 0 0 0 0 0 0 0 0 0 0 0 0 0 0 0 0 0 0 0 0 0 0 0 0 0 0 0 0 0 0 0 0 0 0 0 0 0 0 0 0 0 0 0 0 0 0 0 0 0 0 0 0 0 0 0 0 0 0 0 0 0 0 0 0 0 0 0 0 0 0 0 0 0 0 0 0 0 0 0 0 0 0 0 0 0 0 0 0 0 0 0 0 0 0 0 0 0 0 0 0 0 0 0 0 0 0 0 0 0 0 0 0 0 0 0 0 0 0 0 0 0 0 0 0 0 0 0 0 0 0 0 0 0 0 0 0 0 0 0 0 0 0 0 0 0 0 0 0 0 0 0 0 0 0 0 0 0 0 0 0 0 0 0 0 0 0 0 0 0 
</DataArray>
<DataArray type="Float64" Name="cell variable 4" format="ascii">
0.316217 0.000510187 7.22055e-10 1.1392e-10 0.249242 0.0032488 1.23542e-08 5.06408e-13 0.000319359 0.000137838 9.78894e-13 0.479217 5.48914e-07 1.04461 2.5153e-11 0.000586701 0.334198 4.77775e-11 2.14504e-13 0.161465 1.34433e-07 1.43573e-10 0.511974 1.79224e-10 2.32146e-14 1.06024e-10 0.393381 8.0853e-13 2.48184e-10 0.163146 9.42051e-13 0.626025 0.980966 1.75394e-12 0.437452 1.19294e-07 4.633e-11 0.184973 0.00760007 4.69927e-06 0.252014 1.1995e-07 1.0791e-13 1.08668e-13 0.000160982 5.75207e-12 8.58362e-10 0.434405 8.1913e-13 9.33834e-14 3.42967e-09 0.23011 0.442722 0.33356 3.05763e-10 1.53946e-11 1.06245 2.68958e-08 1.11547 0.912892 0.573608 3.35388e-12 6.26079e-12 3.62571e-14 1.55471e-05 0.542818 1.12037 6.17036e-10 1.36606e-10 1.97283e-08 4.18495e-05 2.5907e-09 2.35345e-13 5.84028e-11 0.0976075 7.68667e-14 0.000116047 0.0505895 5.96913e-06 1.61534e-05 5.26566e-05 2.73299e-11 5.60239e-07 9.71611e-13 1.81312e-09 8.20491e-13 1.55214e-11 1.10185 1.14226 0.371127 5.12565e-14 0.708918 3.8559e-13 1.82626e-12 4.42555e-05 0.00273317 0.118662 7.85135e-13 2.90644e-14 3.14565e-11 0.503886 5.73e-12 1.68594e-06 4.8591e-12 4.44145e-11 2.814e-10 2.22629e-12 5.76039e-06 3.47057e-13 9.51839e-14 3.83176e-13 1.11565e-11 1.3423e-11 0.673042 3.49399e-07 8.33062e-06 2.42345e-06 6.16323e-05 1.6923e-08 0.789941 6.21845e-13 1.12502e-11 3.37504e-10 4.46645e-09 2.16e-11 0.000425284 6.21089e-10 7.13306e-11 0.99432 5.20703e-14 2.06819e-12 3.18802e-14 5.41779e-08 0.000705084 0.66381 5.50953e-14 5.22026e-13 4.32436e-12 2.10901e-08 1.18023e-09 2.34778e-08 1.00681 7.58754e-07 1.95527e-13 1.73379e-12 2.90155e-14 2.88095e-08 6.97512e-07 3.13132e-09 8.68069e-05 0.0773391 5.37776e-11 0.00151096 0.919422 1.16697e-08 7.29789e-07 1.85341e-12 2.00391e-09 1.12956e-11 0.000237451 3.42138e-05 0.94865 0.848855 2.59037e-13 1.10621e-08 5.78851e-09 0.657465 8.723e-13 6.30556e-13 3.48747e-09 4.14778e-14 1.36504e-12 0.00403603 1.03617e-13 2.4788e-08 3.89469e-09 2.0118e-13 3.72001e-12 0.130161 0.0824302 9.53305e-13 0.179448 2.86502e-13 1.32488e-09 0.00103121 1.89305e-07 1.2938e-10 1.41816e-10 0.313432 0.136507 6.83616e-13 3.01178e-10 1.07467 8.75867e-11 1.36132e-10 2.06659e-11 6.13175e-07 6.80038e-10 1.5044e-05 3.52153e-13 0.790107 2.44056e-08 2.28015e-11 3.58878e-10 1.84661e-13 0.50937 0.45141 3.48316e-07 7.55742e-08 2.44034e-13 0.514292 0.000157331 4.61276e-06 0.495708 1.0952e-09 0.153908 7.50844e-12 4.76435e-12 1.38398e-06 1.23799e-05 7.27365e-13 3.28772e-13 3.34221e-13 0.00145277 3.05783e-14 0.8063 0.000331293 0.332003 2.73979e-13 0.763876 1.76443e-09 0.90618 1.25207e-10 0.187543 8.15157e-13 0.0646441 3.38072e-08 1.14453e-06 0.00370628 0.631062 7.9236e-08 1.73262e-10 0.343308 0.32239 0.000306373 0.399988 5.52696e-11 0.736473 2.24794e-07 5.6859e-12 5.98214e-11 0.393247 9.86599e-09 0.36504 1.60998e-08 1.04772e-07 1.86103e-08 3.09214e-07 0.0097703 1.5272e-11 1.65194e-09 1.09841e-08 0.184059 4.92599e-13 0.000209614 0.27464 0.0978407 
</DataArray>
<DataArray type="Float64" Name="cell variable 5" format="ascii">
0.0909148 0.999974 1 1 0.138655 0.998946 1 1 0.99999 0.999998 1 0.0417277 1 0.00908091 1 0.999966 0.082177 1 1 0.277231 1 1 0.0367488 1 1 1 0.0606986 1 1 0.273099 1 0.0248813 0.0102849 1 0.0496613 1 1 0.226167 0.994257 1 0.136034 1 1 1 0.999997 1 1 0.0503251 1 1 1 0.158855 0.0485429 0.0824658 1 1 0.00878122 1 0.00797274 0.0118572 0.0294962 1 1 1 1 0.0328244 0.00790366 1 1 1 1 1 1 1 0.512105 1 0.999999 0.796223 1 1 1 1 1 1 1 1 1 0.00816951 0.00760594 0.0676886 1 0.0195097 1 1 1 0.999254 0.415271 1 1 1 0.037893 1 1 1 1 1 1 1 1 1 1 1 1 0.021599 1 1 1 1 1 0.0157727 1 1 1 1 1 0.999982 1 1 0.0100133 1 1 1 1 0.99995 0.0221905 1 1 1 1 1 1 0.00976872 1 1 1 1 1 1 1 0.999999 0.62573 1 0.999772 0.0116913 1 1 1 1 1 0.999994 1 0.0109898 0.0136882 1 1 1 0.0226112 1 1 1 1 1 0.998374 1 1 1 1 1 0.371169 0.595425 1 0.236958 1 1 0.999894 1 1 1 0.0923878 0.349234 1 1 0.00858434 1 1 1 1 1 1 1 0.0157662 1 1 1 1 0.0371116 0.0467791 1 1 1 0.0364304 0.999998 1 0.0391044 1 0.296844 1 1 1 1 1 1 1 0.999789 1 0.0151488 0.999989 0.0831765 1 0.016849 1 0.0120314 1 0.221374 1 0.705275 1 1 0.998628 0.0244954 1 1 0.0782104 0.0877689 0.999991 0.0588268 1 0.0181031 1 1 1 0.0607373 1 0.0698059 1 1 1 1 0.990544 1 1 1 0.227907 1 0.999996 0.117059 0.510913 
</DataArray>
<DataArray type="Float64" Name="cell variable 6" format="ascii">
0.0038835 1.00883 1.00917 1.00917 0.0566856 1.00681 1.00917 1.00917 1.00896 1.00908 1.00917 0.00051123 1.00917 6.33494e-06 1.00917 1.00878 0.00576492 1.00917 1.00917 0.298329 1.00917 1.00917 0.00035504 1.00917 1.00917 1.00917 0.00151522 1.00917 1.00917 0.294057 1.00917 0.000115922 9.11938e-06 1.00917 0.000885689 1.00917 1.00917 0.208208 1.00277 1.00917 0.0441278 1.00917 1.00917 1.00917 1.00907 1.00917 1.00917 0.000857904 1.00917 1.00917 1.00917 0.0671729 0.000858618 0.00403961 1.00917 1.00917 5.74138e-06 1.00917 4.32387e-06 1.38076e-05 0.000187165 1.00917 1.00917 1.00917 1.00916 0.000251962 4.21468e-06 1.00917 1.00917 1.00917 1.00915 1.00917 1.00917 1.00917 0.67289 1.00917 1.0091 0.900072 1.00917 1.00916 1.00914 1.00917 1.00917 1.00917 1.00917 1.00917 1.00917 4.64493e-06 3.76475e-06 0.0019189 1.00917 5.81379e-05 1.00917 1.00917 1.00914 1.00716 0.533485 1.00917 1.00917 1.00917 0.000380196 1.00917 1.00917 1.00917 1.00917 1.00917 1.00917 1.00917 1.00917 1.00917 1.00917 1.00917 1.00917 7.76673e-05 1.00917 1.00917 1.00917 1.00913 1.00917 3.156e-05 1.00917 1.00917 1.00917 1.00917 1.00917 1.00889 1.00917 1.00917 8.43313e-06 1.00917 1.00917 1.00917 1.00917 1.0087 8.3838e-05 1.00917 1.00917 1.00917 1.00917 1.00917 1.00917 7.8448e-06 1.00917 1.00917 1.00917 1.00917 1.00917 1.00917 1.00917 1.00912 0.780596 1.00917 1.00816 1.32528e-05 1.00917 1.00917 1.00917 1.00917 1.00917 1.00902 1.00915 1.10661e-05 2.09522e-05 1.00917 1.00917 1.00917 8.84138e-05 1.00917 1.00917 1.00917 1.00917 1.00917 1.00605 1.00917 1.00917 1.00917 1.00917 1.00917 0.477444 0.752638 1.00917 0.235078 1.00917 1.00917 1.00849 1.00917 1.00917 1.00917 0.00439847 0.432355 1.00917 1.00917 5.3719e-06 1.00917 1.00917 1.00917 1.00917 1.00917 1.00916 1.00917 3.15261e-05 1.00917 1.00917 1.00917 1.00917 0.000394946 0.000696942 1.00917 1.00917 1.00917 0.000349016 1.00907 1.00917 0.000410215 1.00917 0.3398 1.00917 1.00917 1.00917 1.00917 1.00917 1.00917 1.00917 1.00814 1.00917 2.80904e-05 1.00895 0.00364689 1.00917 3.81646e-05 1.00917 1.4406e-05 1.00917 0.185318 1.00917 0.841792 1.00917 1.00917 1.00642 0.000110922 1.00917 1.00917 0.00310284 0.00628005 1.00897 0.00127682 1.00917 4.69278e-05 1.00917 1.00917 1.00917 0.00202135 1.00917 0.0019794 1.00917 1.00917 1.00917 1.00917 1.00014 1.00917 1.00917 1.00917 0.235443 1.00917 1.00904 0.02163 0.674122 
</DataArray>
<DataArray type="Float64" Name="cell variable 7" format="ascii">
0.357275 0.805214 0.978092 0.988818 0.413855 0.731648 0.944982 0.994685 0.786592 0.818915 0.993483 0.24144 0.895885 0.091923 0.989084 0.789622 0.334908 0.989411 0.998841 0.543895 0.953353 0.985799 0.2268 0.985845 1.00092 0.987264 0.290041 0.998525 0.983128 0.531783 0.992442 0.185875 0.103782 0.990411 0.262734 0.924335 0.988661 0.488241 0.695937 0.865788 0.422896 0.91048 0.997008 1.00172 0.804465 0.987088 0.980133 0.264653 0.991034 0.999503 0.963699 0.46057 0.259721 0.337987 0.973562 0.99226 0.0886341 0.95837 0.0788486 0.116913 0.203114 0.995708 0.986261 1.00151 0.87201 0.214434 0.0779382 0.968141 0.97158 0.947968 0.828165 0.967203 0.99644 0.984507 0.58928 1.00361 0.821805 0.667622 0.876672 0.855098 0.808066 0.980165 0.910934 0.997889 0.951959 1.00169 0.991878 0.0813708 0.0738515 0.306453 1.00149 0.162493 0.994971 0.992078 0.85435 0.786302 0.633332 0.999409 1.00014 0.994724 0.230311 0.992247 0.922196 0.993424 0.98225 0.982487 0.998131 0.912087 1.00344 1.00249 0.999787 0.987627 0.99489 0.172124 0.887905 0.869271 0.886845 0.804393 0.966248 0.142859 0.996819 0.999395 0.974211 0.96428 0.987688 0.777768 0.969761 0.985824 0.10127 0.997763 0.994612 1.00237 0.955764 0.790771 0.174715 1.00165 0.994101 0.996076 0.945385 0.96829 0.922008 0.0989326 0.900971 0.996832 0.995481 1.00397 0.95287 0.921346 0.970096 0.812727 0.646851 0.979721 0.723507 0.115625 0.962378 0.91184 0.996643 0.966983 0.990645 0.815305 0.881455 0.109939 0.129973 0.998061 0.947397 0.969413 0.176526 0.996302 0.995339 0.970553 1.00209 0.994013 0.781706 0.997327 0.95286 0.960718 0.999721 0.995783 0.557964 0.652741 0.998509 0.481302 0.999409 0.978562 0.74517 0.938631 0.98041 0.9868 0.360012 0.58017 0.999374 0.975103 0.0863829 0.983673 0.986005 0.977907 0.926956 0.962912 0.867885 0.994962 0.142821 0.952017 0.98832 0.967409 1.00069 0.227704 0.255368 0.905229 0.926812 1.00105 0.225806 0.802201 0.89681 0.233945 0.965959 0.544906 0.989109 0.987181 0.900885 0.864126 0.997658 0.998671 1.00028 0.822606 1.00321 0.139181 0.823381 0.340125 0.99635 0.148901 0.962923 0.118245 0.986201 0.511928 0.991957 0.663687 0.960394 0.908704 0.736426 0.184332 0.937093 0.978337 0.329428 0.347352 0.774006 0.285858 0.988558 0.15552 0.921969 0.990758 0.988722 0.288948 0.963751 0.311423 0.969235 0.926865 0.933796 0.914119 0.724735 0.990516 0.973522 0.955946 0.426674 1.00277 0.803638 0.399197 0.570965 
</DataArray>
<DataArray type="Float64" Name="cell variable 8" format="ascii">
0.962156 0.00548041 6.78582e-06 2.70073e-06 0.303101 0.0135919 2.78869e-05 1.80258e-07 0.0043084 0.00285712 2.50564e-07 0.972028 0.000183894 1 1.26911e-06 0.00584984 0.666978 1.7492e-06 1.17405e-07 0.168883 9.21472e-05 3.03024e-06 0.981646 3.38566e-06 3.86375e-08 2.60472e-06 0.924592 2.27925e-07 3.9821e-06 0.166567 2.45757e-07 0.999812 1 3.35209e-07 0.929319 8.62799e-05 1.72227e-06 0.186675 0.020738 0.000534122 0.366499 8.62524e-05 8.32445e-08 8.36067e-08 0.00307463 6.06674e-07 7.40148e-06 0.964322 2.29104e-07 7.74736e-08 1.47484e-05 0.336447 0.914192 0.824573 4.41202e-06 9.93431e-07 1 4.12579e-05 1 0.999999 0.998866 4.63979e-07 6.32838e-07 4.82914e-08 0.000973078 0.998786 1 6.26108e-06 2.94792e-06 3.52615e-05 0.00157806 1.2827e-05 1.22923e-07 1.93221e-06 0.0951343 7.03403e-08 0.00262361 0.0604524 0.000603628 0.000987578 0.00175981 1.3207e-06 0.000186424 2.49827e-07 1.06984e-05 2.29733e-07 9.97445e-07 1 1 0.947461 5.74178e-08 0.999602 1.573e-07 3.42153e-07 0.00163446 0.0126922 0.124254 2.24638e-07 4.32264e-08 1.4207e-06 0.990018 6.0608e-07 0.000324206 5.58243e-07 1.68429e-06 4.23971e-06 3.78185e-07 0.000597944 1.49459e-07 7.82584e-08 1.56942e-07 8.44987e-07 9.28078e-07 0.999753 0.000146438 0.000711791 0.000385569 0.00190183 3.27773e-05 0.999979 1.99826e-07 8.50337e-07 4.63595e-06 1.68325e-05 1.17576e-06 0.00495907 6.28357e-06 2.1359e-06 1 5.78335e-08 3.64279e-07 4.52898e-08 5.85262e-05 0.00641749 0.999909 5.95308e-08 1.82997e-07 5.26882e-07 3.64391e-05 8.65944e-06 3.82569e-05 1 0.000216461 1.12051e-07 3.33584e-07 4.32193e-08 4.26536e-05 0.000208494 1.41098e-05 0.0022629 0.0818281 1.85247e-06 0.00919472 1 2.7198e-05 0.000212815 3.44971e-07 1.12807e-05 8.5071e-07 0.00374714 0.00144698 1 0.999982 1.29e-07 2.64013e-05 1.91815e-05 0.999984 2.36648e-07 2.01167e-07 1.48919e-05 5.16566e-08 2.95914e-07 0.0154594 8.15767e-08 3.95647e-05 1.57073e-05 1.13718e-07 4.88655e-07 0.124702 0.0868451 2.4749e-07 0.170768 1.35699e-07 9.19273e-06 0.0076483 0.000109019 2.87369e-06 3.01219e-06 0.917706 0.1384 2.09611e-07 4.3801e-06 1 2.36586e-06 2.95078e-06 1.14797e-06 0.000195722 6.56627e-06 0.000956208 1.50325e-07 0.999916 3.92516e-05 1.20816e-06 4.77426e-06 1.08968e-07 0.939696 0.971081 0.000146805 6.87099e-05 1.25275e-07 0.97802 0.00303742 0.000533206 0.995422 8.33792e-06 0.155249 6.93393e-07 5.52145e-07 0.000292339 0.000866582 2.16148e-07 1.45346e-07 1.46587e-07 0.00932202 4.43619e-08 0.999998 0.00443775 0.883754 1.32627e-07 0.999984 1.05768e-05 1 2.83e-06 0.213109 2.28586e-07 0.0718918 4.62745e-05 0.000266324 0.014563 0.999805 7.05087e-05 3.32422e-06 0.888357 0.697714 0.00420238 0.971384 1.88106e-06 0.999645 0.000118378 6.0358e-07 1.95705e-06 0.787055 2.50146e-05 0.972414 3.19886e-05 8.09021e-05 3.41473e-05 0.000138597 0.023953 9.89153e-07 1.02551e-05 2.63534e-05 0.147616 1.7804e-07 0.00350806 0.488904 0.093308 
</DataArray>
<DataArray type="Float64" Name="cell variable 9" format="ascii">
0 0 0 0 0 0 0 0 0 0 0 0 0 0 0 0 0 0 0 0 0 0 0 0 0 0 0 0 0 0 0 0 0 0 0 0 0 0 0 0 0 0 0 0 0 0 0 0 0 0 0 0 0 0 0 0 0 0 0 0 0 0 0 0 0 0 0 0 0 0 0 0 0 0 0 0 0 0 0 0 0 0 0 0 0 0 0 0 0 0 0 0 0 0 0 0 0 0 0 0 0 0 0 0 0 0 0 0 0 0 0 0 0 0 0 0 0 0 0 0 0 0 0 0 0 0 0 0 0 0 0 0 0 0 0 0 0 0 0 0 0 0 0 0 0 0 0 0 0 0 0 0 0 0 0 0 0 0 0 0 0 0 0 0 0 0 0 0 0 0 0 0 0 0 0 0 0 0 0 0 0 0 0 0 0 0 0 0 0 0 0 0 0 0 0 0 0 0 0 0 0 0 0 0 0 0 0 0 0 0 0 0 0 0 0 0 0 0 0 0 0 0 0 0 0 0 0 0 0 0 0 0 0 0 0 0 0 0 0 0 0 0 0 0 0 0 0 0 0 0 0 0 0 0 0 0 0 0 0 0 0 0 0 0 0 0 0 
</DataArray>
<DataArray type="Float64" Name="cell variable 10" format="ascii">
0 0 0 0 0 0 0 0 0 0 0 0 0 0 0 0 0 0 0 0 0 0 0 0 0 0 0 0 0 0 0 0 0 0 0 0 0 0 0 0 0 0 0 0 0 0 0 0 0 0 0 0 0 0 0 0 0 0 0 0 0 0 0 0 0 0 0 0 0 0 0 0 0 0 0 0 0 0 0 0 0 0 0 0 0 0 0 0 0 0 0 0 0 0 0 0 0 0 0 0 0 0 0 0 0 0 0 0 0 0 0 0 0 0 0 0 0 0 0 0 0 0 0 0 0 0 0 0 0 0 0 0 0 0 0 0 0 0 0 0 0 0 0 0 0 0 0 0 0 0 0 0 0 0 0 0 0 0 0 0 0 0 0 0 0 0 0 0 0 0 0 0 0 0 0 0 0 0 0 0 0 0 0 0 0 0 0 0 0 0 0 0 0 0 0 0 0 0 0 0 0 0 0 0 0 0 0 0 0 0 0 0 0 0 0 0 0 0 0 0 0 0 0 0 0 0 0 0 0 0 0 0 0 0 0 0 0 0 0 0 0 0 0 0 0 0 0 0 0 0 0 0 0 0 0 0 0 0 0 0 0 0 0 0 0 0 0 
</DataArray>
<DataArray type="Float64" Name="cell variable 11" format="ascii">
0 0 0 0 0 0 0 0 0 0 0 0 0 0 0 0 0 0 0 0 0 0 0 0 0 0 0 0 0 0 0 0 0 0 0 0 0 0 0 0 0 0 0 0 0 0 0 0 0 0 0 0 0 0 0 0 0 0 0 0 0 0 0 0 0 0 0 0 0 0 0 0 0 0 0 0 0 0 0 0 0 0 0 0 0 0 0 0 0 0 0 0 0 0 0 0 0 0 0 0 0 0 0 0 0 0 0 0 0 0 0 0 0 0 0 0 0 0 0 0 0 0 0 0 0 0 0 0 0 0 0 0 0 0 0 0 0 0 0 0 0 0 0 0 0 0 0 0 0 0 0 0 0 0 0 0 0 0 0 0 0 0 0 0 0 0 0 0 0 0 0 0 0 0 0 0 0 0 0 0 0 0 0 0 0 0 0 0 0 0 0 0 0 0 0 0 0 0 0 0 0 0 0 0 0 0 0 0 0 0 0 0 0 0 0 0 0 0 0 0 0 0 0 0 0 0 0 0 0 0 0 0 0 0 0 0 0 0 0 0 0 0 0 0 0 0 0 0 0 0 0 0 0 0 0 0 0 0 0 0 0 0 0 0 0 0 0 
</DataArray>
<DataArray type="Float64" Name="cell variable 12" format="ascii">
0 0 0 0 0 0 0 0 0 0 0 0 0 0 0 0 0 0 0 0 0 0 0 0 0 0 0 0 0 0 0 0 0 0 0 0 0 0 0 0 0 0 0 0 0 0 0 0 0 0 0 0 0 0 0 0 0 0 0 0 0 0 0 0 0 0 0 0 0 0 0 0 0 0 0 0 0 0 0 0 0 0 0 0 0 0 0 0 0 0 0 0 0 0 0 0 0 0 0 0 0 0 0 0 0 0 0 0 0 0 0 0 0 0 0 0 0 0 0 0 0 0 0 0 0 0 0 0 0 0 0 0 0 0 0 0 0 0 0 0 0 0 0 0 0 0 0 0 0 0 0 0 0 0 0 0 0 0 0 0 0 0 0 0 0 0 0 0 0 0 0 0 0 0 0 0 0 0 0 0 0 0 0 0 0 0 0 0 0 0 0 0 0 0 0 0 0 0 0 0 0 0 0 0 0 0 0 0 0 0 0 0 0 0 0 0 0 0 0 0 0 0 0 0 0 0 0 0 0 0 0 0 0 0 0 0 0 0 0 0 0 0 0 0 0 0 0 0 0 0 0 0 0 0 0 0 0 0 0 0 0 0 0 0 0 0 0 
</DataArray>
<DataArray type="Float64" Name="cell variable 13" format="ascii">
0 0 0 0 0 0 0 0 0 0 0 0 0 0 0 0 0 0 0 0 0 0 0 0 0 0 0 0 0 0 0 0 0 0 0 0 0 0 0 0 0 0 0 0 0 0 0 0 0 0 0 0 0 0 0 0 0 0 0 0 0 0 0 0 0 0 0 0 0 0 0 0 0 0 0 0 0 0 0 0 0 0 0 0 0 0 0 0 0 0 0 0 0 0 0 0 0 0 0 0 0 0 0 0 0 0 0 0 0 0 0 0 0 0 0 0 0 0 0 0 0 0 0 0 0 0 0 0 0 0 0 0 0 0 0 0 0 0 0 0 0 0 0 0 0 0 0 0 0 0 0 0 0 0 0 0 0 0 0 0 0 0 0 0 0 0 0 0 0 0 0 0 0 0 0 0 0 0 0 0 0 0 0 0 0 0 0 0 0 0 0 0 0 0 0 0 0 0 0 0 0 0 0 0 0 0 0 0 0 0 0 0 0 0 0 0 0 0 0 0 0 0 0 0 0 0 0 0 0 0 0 0 0 0 0 0 0 0 0 0 0 0 0 0 0 0 0 0 0 0 0 0 0 0 0 0 0 0 0 0 0 0 0 0 0 0 0 
</DataArray>
<DataArray type="Float64" Name="cell variable 14" format="ascii">
0 0 0 0 0 0 0 0 0 0 0 0 0 0 0 0 0 0 0 0 0 0 0 0 0 0 0 0 0 0 0 0 0 0 0 0 0 0 0 0 0 0 0 0 0 0 0 0 0 0 0 0 0 0 0 0 0 0 0 0 0 0 0 0 0 0 0 0 0 0 0 0 0 0 0 0 0 0 0 0 0 0 0 0 0 0 0 0 0 0 0 0 0 0 0 0 0 0 0 0 0 0 0 0 0 0 0 0 0 0 0 0 0 0 0 0 0 0 0 0 0 0 0 0 0 0 0 0 0 0 0 0 0 0 0 0 0 0 0 0 0 0 0 0 0 0 0 0 0 0 0 0 0 0 0 0 0 0 0 0 0 0 0 0 0 0 0 0 0 0 0 0 0 0 0 0 0 0 0 0 0 0 0 0 0 0 0 0 0 0 0 0 0 0 0 0 0 0 0 0 0 0 0 0 0 0 0 0 0 0 0 0 0 0 0 0 0 0 0 0 0 0 0 0 0 0 0 0 0 0 0 0 0 0 0 0 0 0 0 0 0 0 0 0 0 0 0 0 0 0 0 0 0 0 0 0 0 0 0 0 0 0 0 0 0 0 0 
</DataArray>
</CellData>
</Piece>
</UnstructuredGrid>
</VTKFile>
