<VTKFile type="UnstructuredGrid" version="0.1">
<UnstructuredGrid>
<Piece  NumberOfPoints="    2172" NumberOfCells="    1599">
<Points>
<DataArray type="Float64" NumberOfComponents="3" format="ascii">
-28.3035 -22.2921 0 
4.10269 4.66161 0 
22.3502 -3.35722 0 
0.342088 -29.0631 0 
-12.4592 21.5778 0 
-30.6981 11.6695 0 
2.27877 42.1381 0 
-11.3282 48.3431 0 
-23.5379 29.0755 0 
34.5563 -12.7019 0 
-29.0453 5.3142 0 
19.8755 -11.0407 0 
-5.81678 17.6411 0 
2.65966 -29.0496 0 
30.5518 11.0081 0 
-48.5053 8.86844 0 
-1.96122 -40.3806 0 
37.3999 3.88748 0 
-14.8896 -44.6551 0 
13.2847 -10.0408 0 
24.2988 34.9646 0 
19.4886 22.6449 0 
-23.8567 -20.1937 0 
1.8663 0.670651 0 
-17.1774 32.281 0 
25.207 -4.86459 0 
4.86929 -46.4533 0 
-13.2129 -25.5037 0 
-25.6818 6.38825 0 
-29.9463 -6.37299 0 
33.0952 28.6809 0 
-39.7792 27.0336 0 
-22.4526 36.3479 0 
-15.7608 27.9152 0 
-6.32599 39.9166 0 
-8.92202 39.4054 0 
-7.53487 16.0487 0 
-4.56244 22.7512 0 
35.9497 -30.0746 0 
-44.5794 6.69138 0 
24.2312 32.1629 0 
-10.1228 -37.4031 0 
17.4402 -28.5939 0 
-19.7688 30.338 0 
-43.6788 -1.24171 0 
30.0623 -10.3787 0 
-6.1797 -1.22444 0 
-12.9552 14.9301 0 
-27.8754 38.9557 0 
27.3348 33.5688 0 
-41.4099 -19.6356 0 
11.339 33.8544 0 
-11.5108 -5.05188 0 
19.0421 -36.8184 0 
-11.8556 -12.0588 0 
-20.0478 2.48365 0 
-4.37923 -24.1082 0 
-34.9636 26.0962 0 
45.727 -5.30713 0 
7.81456 23.8615 0 
1.15846 -45.4681 0 
-7.67937 -42.8123 0 
23.2076 -23.0768 0 
41.9978 9.51991 0 
-28.1201 14.5218 0 
3.82111 25.2635 0 
41.3095 15.9391 0 
-30.4816 -13.2725 0 
39.93 -23.1085 0 
5.59601 38.8359 0 
7.03833 -2.66095 0 
-25.3035 -18.8333 0 
32.6954 -33.464 0 
-42.0361 18.1261 0 
45.6378 -7.47672 0 
-21.9743 -9.01413 0 
43.1203 -16.1231 0 
45.4889 -2.44428 0 
11.4588 -21.3448 0 
-0.21322 34.7515 0 
-4.59878 44.5595 0 
14.8784 -18.0823 0 
-6.42204 -5.04013 0 
21.7609 30.7017 0 
24.9684 12.529 0 
38.6637 -4.8553 0 
14.0902 42.8711 0 
-0.665634 26.0785 0 
17.6489 36.6182 0 
-19.6231 26.904 0 
30.2457 30.5932 0 
-14.148 -13.9416 0 
11.5345 14.8953 0 
-31.8033 -17.3537 0 
-44.6826 -8.92173 0 
17.5407 -33.5357 0 
13.557 -1.37961 0 
43.3627 -11.6896 0 
-15.4425 44.6597 0 
5.82057 -17.5733 0 
-11.7625 -37.9559 0 
-24.5224 9.75414 0 
23.1452 6.28046 0 
-30.9267 2.33885 0 
29.2743 -9.99264 0 
20.9019 40.2981 0 
-29.4771 -2.93374 0 
44.676 5.98205 0 
-36.5196 14.8588 0 
-37.5136 -25.5963 0 
36.7897 9.52906 0 
-8.79787 5.64767 0 
-10.3639 -45.6708 0 
-43.251 3.56101 0 
-10.5155 43.107 0 
35.482 2.43509 0 
-18.9065 -42.3756 0 
17.5976 -40.9162 0 
22.989 -26.2889 0 
18.8005 -2.86787 0 
14.6403 38.0809 0 
-12.5622 38.0087 0 
-2.67898 39.2482 0 
19.1869 32.6067 0 
-15.574 37.618 0 
-19.9332 22.187 0 
4.55233 -40.6795 0 
21.1457 -20.173 0 
14.585 26.2129 0 
39.0075 -0.581414 0 
3.96563 33.6604 0 
-11.0405 -1.97725 0 
-21.3903 -16.8186 0 
-6.47482 -8.64783 0 
32.1576 18.8469 0 
38.3617 -28.1663 0 
16.0984 -2.49451 0 
38.8648 18.4736 0 
35.1762 25.9291 0 
-14.3177 -38.7266 0 
-38.1379 -16.4049 0 
10.1876 34.3225 0 
5.84599 -46.2858 0 
-2.76449 6.77724 0 
23.7095 21.4261 0 
1.43682 14.8803 0 
-18.6031 -37.2947 0 
37.4263 21.2825 0 
19.6179 10.004 0 
5.68753 19.9314 0 
-32.1843 10.6698 0 
-31.6357 27.8727 0 
29.9915 15.3614 0 
22.0768 -31.8402 0 
0.472335 34.6526 0 
31.3391 26.5197 0 
4.53723 9.64751 0 
9.77665 5.24588 0 
32.1427 -26.2717 0 
-2.06721 -34.8072 0 
-40.1015 2.2692 0 
-7.20307 -7.67098 0 
23.1917 28.4006 0 
-22.2861 17.7363 0 
-26.9463 -16.0655 0 
-41.1802 12.887 0 
44.1805 -18.3377 0 
-35.3789 -19.2063 0 
-23.4414 35.74 0 
-8.78205 -13.1286 0 
25.912 10.1972 0 
-6.2325 -47.4378 0 
-17.7737 6.9246 0 
24.7629 6.71301 0 
7.41575 35.0935 0 
45.4168 -8.08378 0 
-6.79986 12.6816 0 
-34.4445 -21.447 0 
11.2949 14.1201 0 
6.56984 -4.23656 0 
9.4883 -44.8775 0 
-38.1807 21.0603 0 
-22.6171 10.7223 0 
-2.20215 -24.5421 0 
-21.4676 23.348 0 
21.9708 -13.6563 0 
23.7649 -19.8071 0 
4.5686 13.6329 0 
-17.2143 23.2436 0 
-13.1832 -6.70863 0 
-36.2403 32.6538 0 
21.1908 36.6037 0 
35.2418 -18.2521 0 
-10.6429 -33.5689 0 
26.9222 18.2079 0 
-39.5658 -0.837855 0 
20.3596 16.2285 0 
-9.7857 5.70762 0 
25.2799 -9.61614 0 
45.5815 1.36803 0 
40.0196 13.8385 0 
2.11719 44.9201 0 
-1.13604 -47.5579 0 
-11.1031 22.0604 0 
26.5312 36.708 0 
-12.4228 47.705 0 
-40.1855 -22.4997 0 
29.5411 -28.7641 0 
-1.40042 -3.56902 0 
34.4057 -23.5075 0 
9.64235 -27.631 0 
-2.04442 -48.0812 0 
22.5413 16.5884 0 
-1.0581 22.0059 0 
-14.7291 33.3249 0 
-10.7648 -22.0871 0 
28.1741 -16.4475 0 
33.6693 17.6039 0 
7.42178 29.3291 0 
35.5913 -7.80756 0 
-8.46267 9.37155 0 
-12.365 1.28932 0 
16.8653 -23.3619 0 
-16.5732 40.4783 0 
6.15943 12.5396 0 
-39.0242 -7.09328 0 
-31.1428 -26.4875 0 
-2.62873 24.4653 0 
20.7598 -15.8767 0 
18.5481 -21.1293 0 
-25.8753 -11.8633 0 
-38.2308 -26.4116 0 
-30.8066 0.679289 0 
-16.1766 34.9182 0 
1.18215 39.5313 0 
-44.1956 -12.8589 0 
-23.0191 -5.35636 0 
23.9233 -39.7922 0 
-12.1841 4.79996 0 
9.03942 39.7721 0 
13.4465 -26.7099 0 
-4.26983 -30.8608 0 
-14.4428 24.1684 0 
-19.0029 -1.3411 0 
10.1768 -5.98093 0 
2.20704 39.5383 0 
1.24531 6.67426 0 
-2.14335 -10.602 0 
-34.6708 20.8497 0 
32.9906 2.21669 0 
-31.5516 -34.0026 0 
36.6481 -28.9446 0 
-18.4741 37.844 0 
37.1 7.72563 0 
2.96214 -9.73574 0 
17.9387 -18.1449 0 
26.9126 -37.7037 0 
4.69117 -15.8232 0 
12.7393 -2.21225 0 
-27.2385 -33.3318 0 
-32.5101 28.6864 0 
15.8382 -34.9241 0 
-12.7845 7.04265 0 
20.1879 -16.523 0 
6.16593 -33.5632 0 
41.8561 -20.3447 0 
-34.8909 3.52477 0 
0.512602 19.5361 0 
-25.219 32.3138 0 
23.8842 14.7702 0 
43.2782 -19.7766 0 
14.9476 21.6871 0 
-16.8352 42.5284 0 
-29.4709 -20.9246 0 
4.95702 30.7611 0 
9.08811 -32.3274 0 
-8.67866 33.6094 0 
-11.7954 8.71769 0 
23.9934 38.8789 0 
-40.0656 10.1303 0 
37.577 -5.6455 0 
7.06887 43.1477 0 
-33.0202 -16.8888 0 
17.2386 14.7038 0 
12.4763 -35.9033 0 
43.5357 -0.0776693 0 
41.9261 -3.77375 0 
11.5525 -30.2282 0 
-45.136 -6.36998 0 
18.2994 2.2521 0 
39.9982 -16.4946 0 
-35.3743 -2.01029 0 
-1.94286 7.34678 0 
-25.0966 -11.7689 0 
30.2925 9.12902 0 
19.0883 -4.76336 0 
14.493 32.5113 0 
-2.24245 11.9276 0 
-28.0854 -9.22554 0 
-2.48368 -13.8022 0 
29.6683 -1.69323 0 
39.5191 -10.1573 0 
25.3135 -6.11305 0 
-2.72963 20.336 0 
1.74876 18.9386 0 
-32.0954 24.083 0 
-43.4514 13.914 0 
-28.2234 21.4413 0 
15.6351 9.38779 0 
9.48832 11.0739 0 
-38.739 8.12195 0 
36.1588 13.467 0 
-32.2236 -27.6888 0 
33.9498 34.5011 0 
-33.5597 5.73499 0 
32.6516 -5.97778 0 
3.71669 -35.3127 0 
-9.67595 28.6772 0 
-36.2658 -9.15361 0 
26.1079 -24.3189 0 
-27.0424 -29.0557 0 
-7.23824 34.3168 0 
-30.8076 17.8683 0 
-38.8481 11.4844 0 
30.7014 28.4399 0 
38.0264 -25.2416 0 
-46.7644 13.071 0 
-25.2344 -26.4495 0 
33.1152 -17.4429 0 
-25.7738 35.7541 0 
7.41435 -4.67664 0 
-32.876 -24.0125 0 
9.55263 -41.6589 0 
26.0873 3.14387 0 
-40.1365 22.1294 0 
-11.4307 38.5398 0 
28.2988 -26.7158 0 
-20.2556 11.9532 0 
36.7762 23.0252 0 
15.0631 -25.0065 0 
15.0146 -39.6743 0 
-26.7931 26.023 0 
9.33952 -16.9894 0 
-43.5892 11.3536 0 
-22.6753 -21.8903 0 
-8.01356 22.6589 0 
-26.4669 39.5113 0 
-23.3626 -3.21308 0 
-5.56874 2.0278 0 
-8.38153 -21.8886 0 
42.3257 6.36444 0 
-5.93553 -14.7595 0 
35.0732 -19.715 0 
-21.4104 -27.4514 0 
-26.5464 19.9544 0 
-9.18755 14.277 0 
-18.0575 9.20593 0 
30.8357 21.6089 0 
-3.13299 44.9955 0 
-15.5746 17.8794 0 
10.3537 -36.6377 0 
-37.3965 23.5223 0 
-42.7091 -5.95888 0 
-24.0864 21.7508 0 
-15.7496 -18.4749 0 
32.0251 36.7171 0 
-8.00092 47.6357 0 
18.8638 11.3494 0 
20.7568 7.16733 0 
-0.313094 -1.214 0 
37.0068 -15.5073 0 
-8.27019 -20.9574 0 
-25.5484 -0.582387 0 
8.59335 21.7508 0 
1.21693 -8.29292 0 
-12.413 -39.9267 0 
13.1896 -15.5329 0 
-0.078178 -15.0081 0 
-5.50901 4.01351 0 
-16.7075 -30.5379 0 
-25.2493 2.92217 0 
-36.3528 -29.0994 0 
39.4964 -7.0351 0 
26.9223 -31.7181 0 
18.9419 40.6483 0 
-4.56212 -39.0922 0 
25.2357 26.0461 0 
-17.9194 -33.8195 0 
-3.88539 13.1563 0 
16.0372 29.4169 0 
12.3514 -40.8929 0 
-4.20915 -47.913 0 
7.33196 -27.3994 0 
42.2884 3.06231 0 
29.0957 -20.0917 0 
-15.7345 -0.0231793 0 
-20.2175 -10.4162 0 
29.0303 24.0696 0 
-34.3841 -6.23294 0 
-2.22606 29.8595 0 
30.3271 -35.524 0 
-35.3265 19.5909 0 
17.6413 -8.42609 0 
-44.575 5.33914 0 
-43.2911 -16.4341 0 
-19.9764 -0.267811 0 
-7.31076 -29.1925 0 
3.51326 44.677 0 
16.482 -43.484 0 
4.18458 9.08651 0 
2.84813 25.5365 0 
-33.3068 14.2536 0 
11.2482 7.3195 0 
-34.3424 -28.2368 0 
-14.4755 -20.7059 0 
-4.55082 -43.0514 0 
-34.0728 -31.4849 0 
-41.1754 5.58692 0 
25.1204 -37.0107 0 
14.0287 -13.2103 0 
12.3299 19.7838 0 
26.2724 18.8589 0 
-17.1017 -13.9772 0 
-6.80523 43.7328 0 
-38.3891 31.3219 0 
-22.3458 39.5279 0 
-27.8928 24.7608 0 
10.138 26.983 0 
-15.738 12.2602 0 
3.03787 6.1725 0 
7.12831 -12.4718 0 
20.346 -28.4808 0 
-18.3523 5.9742 0 
21.6057 21.0376 0 
-8.61893 -1.87392 0 
22.8866 -35.1689 0 
-17.1375 -16.2936 0 
26.4088 -25.1358 0 
-8.91145 12.481 0 
-6.93747 30.0625 0 
-11.8118 27.4612 0 
29.6154 -12.4078 0 
10.5469 -21.8332 0 
-1.75546 -42.9743 0 
-30.5456 32.0504 0 
0.708743 -41.4422 0 
-39.3475 -12.0949 0 
-38.8481 30.4798 0 
-31.4197 -9.00564 0 
0.697607 -35.3125 0 
-4.78844 -33.2071 0 
1.59576 -47.5798 0 
34.2162 -27.9148 0 
-40.001 -8.98965 0 
-5.43704 -18.8567 0 
6.97574 -37.688 0 
45.7568 -13.0477 0 
-32.725 9.15856 0 
-4.09521 35.7169 0 
7.85443 3.40412 0 
-18.4902 15.0559 0 
-22.5421 -39.585 0 
14.6401 16.4334 0 
19.6463 28.9546 0 
3.43506 31.4004 0 
4.12342 -10.7219 0 
-14.4734 18.676 0 
24.332 -33.9101 0 
6.62568 -23.882 0 
14.4819 -28.7324 0 
-20.9959 -23.3496 0 
2.48016 -21.1893 0 
-16.3253 -23.7785 0 
-13.3742 33.8709 0 
29.3084 -34.9222 0 
-45.2886 -0.772039 0 
0.366479 -9.12076 0 
14.9037 -10.8624 0 
-1.10267 27.1055 0 
7.07032 -41.1315 0 
43.8164 8.00283 0 
-13.7099 -31.8663 0 
-14.2364 42.6143 0 
-4.45617 -2.98611 0 
11.8663 38.9989 0 
-33.2497 33.6387 0 
-37.9927 4.82263 0 
11.8112 43.9882 0 
1.75528 -6.071 0 
6.36952 45.063 0 
8.16143 0.20984 0 
-39.3256 -2.10135 0 
-2.2365 13.1216 0 
[...]
<CellData Scalars="wall variable 0">
<DataArray type="Float64" Name="wall length" format="ascii">
2.40651 1.76958 2.65547 2.36842 5.91218 0.880981 2.37395 2.9952 2.9686 4.60165 5.11446 2.37301 2.72464 3.62392 3.11658 7.93896 0.86166 3.59075 3.3229 3.23258 4.32688 4.8891 1.389 4.77272 1.84716 3.47815 4.75716 4.36252 4.47052 4.75716 4.75716 3.17881 4.37644 3.76189 3.71358 1.63913 3.66231 2.28755 1.60842 2.77488 2.98579 2.98579 1.21354 2.80866 4.52611 4.50378 4.53948 5.35235 2.20727 4.39022 4.41799 2.31574 4.1603 3.49582 3.47566 5.82461 2.84397 4.92122 4.62196 3.94242 5.60033 5.1539 2.3714 3.8486 4.57303 3.04713 4.06425 3.88184 4.3129 3.29157 7.61462 1.89649 2.84397 2.84713 4.1129 3.92697 3.94306 3.92101 1.1316 2.16061 3.78275 2.91848 2.76132 7.97163 4.09128 1.87754 3.05256 3.11658 2.11125 2.15562 3.69477 6.36709 3.38205 0.770801 4.08762 3.66768 2.35133 2.27825 3.45204 6.40176 3.36434 2.88969 3.04868 2.28926 1.3251 2.88296 3.38274 3.76048 7.28724 2.82836 1.39422 5.10619 1.49784 3.33064 3.7657 3.81762 3.39597 3.93094 1.19537 2.87852 3.42214 4.24596 3.46393 6.5046 1.75375 1.55805 3.27232 4.19904 4.04566 4.8891 4.34035 3.43987 3.93398 1.93163 1.44978 2.41691 6.38668 5.01964 0.86166 2.44818 9.70836 1.43837 2.24682 4.70394 4.24951 2.5197 2.56053 3.67461 5.316 1.25672 3.79296 3.97924 2.94312 5.717 2.82887 3.8053 1.85799 5.29448 3.75597 2.22306 4.84325 4.38098 4.10541 2.88969 2.88969 3.1473 3.1473 6.09765 1.55805 3.69431 3.23258 3.99917 3.3369 2.98086 0.880981 3.09881 4.97617 1.0066 4.60165 2.85822 6.41938 3.5726 3.87065 2.86673 7.15579 3.2674 1.84721 3.22445 3.87759 1.16136 7.15579 4.43943 3.10678 1.77291 3.04225 0.648521 1.6042 2.95502 2.94013 5.1539 4.09846 2.17467 4.48588 5.27519 1.90785 3.12172 2.87893 2.38167 1.64785 7.06401 2.74739 3.92697 3.39889 2.10328 3.10514 2.6926 4.67651 4.13086 0.915496 4.41799 2.14111 4.92222 1.37513 4.02391 4.04042 3.45017 4.22303 2.24902 4.53836 2.17026 4.08762 6.1952 3.56633 3.71358 6.16692 3.88913 4.42826 6.38668 3.75346 3.59506 2.99616 3.39597 0.790518 2.36112 3.38949 3.47566 2.45907 2.39998 3.41173 5.72645 3.24527 4.09846 4.06425 4.30331 3.2266 3.24685 8.45793 2.79915 2.69144 5.46362 3.57373 1.91348 5.11446 1.0066 4.30122 3.53131 2.2536 3.81594 2.28663 4.64068 3.85271 3.89958 1.78716 5.39886 3.11675 3.35278 3.33228 2.52188 3.42214 6.09765 3.47885 3.43987 0.790518 3.81762 5.46509 1.84721 3.37176 2.17522 1.98886 4.14876 3.86325 1.82225 3.24959 3.38218 4.42553 2.04785 3.08593 5.65215 3.07034 3.90014 2.88128 4.35051 5.05917 2.99739 3.92101 3.38919 1.00124 2.09207 3.66768 2.17026 3.22845 3.29157 3.67676 1.40131 4.38855 5.30489 4.02391 4.7652 2.02626 2.33533 2.35746 3.99448 2.27825 2.3313 6.90749 1.71836 1.24295 1.50176 4.93206 2.85513 5.717 4.56415 3.42987 3.28958 3.35278 3.3369 1.78857 3.76635 2.53904 6.81461 3.04225 1.74762 3.93929 0.337764 5.59071 2.28021 2.88765 3.93694 0.681402 3.78275 4.83611 1.56551 6.07224 2.73691 2.4911 2.94581 1.56551 0.910983 2.94286 4.39111 2.55632 2.60555 4.39111 3.0492 2.65547 8.01306 2.7444 1.12287 4.14114 3.0869 3.42987 2.86551 4.74791 1.6042 7.49796 3.24925 2.54615 2.60317 4.73303 3.09345 3.08593 2.14472 3.6293 3.41848 3.80098 2.17626 4.43214 2.57421 3.04079 3.07757 7.64925 4.3129 2.26483 2.96924 3.35551 3.55492 3.48125 3.67676 2.4911 3.07625 2.96074 3.14559 2.33843 2.91848 3.18655 3.48765 7.401 1.70401 3.82097 3.41173 1.75487 4.59271 2.95502 4.73303 3.12891 5.04174 3.59075 5.01964 3.70408 2.66957 2.7861 3.2813 3.19173 3.19625 3.07757 2.87104 2.18774 6.30463 1.19537 2.88296 8.29924 2.47482 3.46846 4.50838 3.41884 3.33632 3.04529 3.75238 4.62797 2.16133 2.35094 3.11675 3.24183 2.98409 2.75087 2.8004 2.59776 1.42451 4.17927 2.95618 1.71836 1.50629 2.91208 2.91208 2.51631 3.06951 4.59344 1.30938 2.64355 8.54847 1.18462 2.00797 7.75479 2.50829 4.22303 4.14016 0.984978 5.26838 2.91208 1.31813 3.90569 3.33064 2.18377 4.12571 1.09632 3.46391 0.984978 5.61912 1.60842 2.81428 2.88765 2.93085 8.26615 3.06636 4.37644 1.217 3.40653 3.95862 2.14111 5.82461 3.38949 4.82112 2.55341 2.55341 1.98886 7.42102 2.85024 2.64912 3.02694 4.17443 3.33706 3.56643 2.09994 4.43214 2.19274 4.57293 0.904095 1.18515 7.71509 3.80735 2.31211 5.89781 3.80692 4.11709 4.05227 2.98936 5.33993 0.904095 3.99177 8.54847 2.64355 3.5312 3.86476 3.42327 2.19899 4.70659 2.87184 4.84608 3.69477 4.38751 6.07224 2.94581 3.04633 3.76635 2.73691 4.38751 1.74762 1.77291 7.53685 3.07625 3.36434 0.373815 3.77442 5.29448 4.53043 1.76338 3.48775 3.80692 3.11417 3.11476 2.50305 6.26405 4.00942 3.42094 1.49129 6.0114 2.33533 4.67588 4.64068 2.35094 8.24272 3.48851 2.82836 1.00007 3.38098 3.50615 3.87065 3.80665 2.82836 7.75479 2.15863 1.28216 3.29642 3.5326 2.49617 2.47905 2.91208 5.26838 3.46391 3.37772 3.50856 2.40651 7.01833 0.838841 2.44722 3.30184 2.19881 2.86551 4.56415 2.94187 2.83387 4.65696 1.31983 5.48708 3.37396 5.316 3.68368 2.30572 1.49784 3.05256 3.32258 3.86476 2.38532 2.44818 7.93896 2.3313 2.35133 1.76338 2.04868 2.83565 2.3313 4.14114 4.74239 4.01201 2.10328 4.89792 1.25905 5.98773 2.66957 4.17545 2.02283 0.867501 3.95862 3.17344 2.86371 4.16191 3.22487 3.22487 2.75087 2.80866 4.96471 2.86673 3.50615 4.10796 2.70116 3.33228 3.28958 3.0869 1.25905 3.93249 2.73016 3.30701 3.1473 3.18787 1.43837 0.377681 4.95659 3.11411 7.89378 2.93085 2.28021 2.28021 1.3302 1.64785 2.64355 2.64355 3.89157 3.98335 3.50261 3.30701 3.3144 4.34772 3.1473 3.30701 1.18462 3.99177 3.32258 1.87754 2.88086 1.91348 3.9602 1.70401 2.63601 2.20727 4.38683 4.35617 2.85037 2.50791 2.4893 2.84578 4.70659 3.46464 3.79296 3.69826 3.67241 2.04868 4.53043 1.85799 2.22401 2.51078 0.964085 2.41269 2.43689 4.42826 1.85365 4.2879 4.11709 4.57293 4.14016 6.1952 0.770801 4.27462 3.13075 1.93307 3.49582 3.47484 3.29642 9.71126 2.45907 3.11411 3.11411 2.38167 4.1129 3.20783 1.39397 3.04196 2.95553 2.82702 6.32781 1.24295 2.94312 1.1316 2.78076 3.10908 2.58424 2.35746 6.0114 2.20793 4.01201 3.53951 3.88209 3.60984 5.88313 3.10514 9.70836 2.38532 3.5312 3.50261 3.39913 0.377681 2.1197 2.1197 3.93249 4.89792 3.39889 3.43776 4.21737 4.23976 3.98291 3.43776 4.13086 4.11627 1.27975 4.35051 3.61885 7.71509 3.76642 4.19904 1.63147 3.46739 4.62196 4.92665 3.77567 2.09041 2.59432 3.12734 4.62195 3.41352 3.59974 3.55458 2.64912 3.03988 0.337764 3.7737 3.62697 2.59015 5.36624 6.24022 3.69826 3.54922 3.69349 3.20876 4.05197 3.37176 5.85692 2.92598 5.469 3.22115 2.86371 2.98409 1.2234 5.49197 0.638888 4.09919 4.38098 4.34772 1.52554 1.67797 5.45466 5.5059 4.22707 2.73016 2.1197 5.49046 3.3854 7.89378 3.11411 3.33425 2.51631 2.47905 1.09632 3.44012 3.10908 4.56706 4.9618 1.90785 1.24631 7.49977 3.11417 5.89781 5.01107 4.08782 1.5028 5.23014 3.39446 6.41938 3.26574 3.4858 4.58315 4.17714 2.28926 4.03435 4.00326 3.33632 4.8544 4.55722 3.13075 4.42086 4.21737 4.16111 1.75487 3.19496 6.22066 1.90647 2.47482 2.38406 3.75913 1.78716 2.00797 1.93307 4.55722 5.04174 3.85559 4.07206 2.15863 0.964085 7.71347 2.42558 3.14559 1.8772 3.54922 4.27462 3.38205 3.3507 2.95651 4.23976 4.42086 4.58315 3.43728 3.27601 3.20876 3.301 3.36135 1.96608 3.77705 2.82836 7.28724 2.30572 3.82284 3.62697 9.63233 1.52554 3.3144 2.81284 3.89157 1.30938 3.04761 3.3229 3.19173 3.16427 5.1938 0.284822 2.24499 3.81594 3.19805 3.2216 1.63147 3.27232 2.21392 2.97872 5.05917 0.838841 2.68972 2.9952 2.7175 4.28669 2.54418 3.40295 3.32223 4.38855 2.64647 2.62955 4.62195 4.2391 3.26574 2.85822 4.96471 1.21354 3.34583 5.90904 2.94869 2.48624 1.63913 3.56633 2.43689 4.88312 2.68241 2.76132 2.33843 2.42558 2.34628 2.96924 1.75375 3.7438 5.52284 2.21392 4.34035 4.32688 3.69431 2.97872 5.52284 3.0877 4.92665 4.92122 1.89649 2.99739 1.18515 3.48775 3.46413 2.54823 3.20116 1.389 4.04566 3.76642 2.47754 2.11125 3.62392 0.284822 2.5634 2.47754 4.8544 3.24183 5.39886 3.75913 4.65563 3.53131 1.38715 6.85331 2.55341 2.24514 4.81571 3.3854 0.376156 4.48342 3.40295 3.38092 3.48084 3.46393 1.62617 2.16061 2.20793 1.49129 6.87138 0.910983 4.83611 1.93163 2.44319 2.53904 3.04633 2.60555 7.64525 1.50967 3.14366 2.56053 6.13135 5.01107 2.31211 1.13871 4.16191 3.22115 2.09994 4.79885 3.02694 3.55458 6.29849 2.57421 2.02283 4.94304 1.52342 3.38274 3.41884 4.97683 3.42094 2.36477 2.36842 3.0492 2.94286 6.87138 5.49197 2.59713 2.59015 3.82284 3.68368 3.67461 3.14366 2.6926 5.88313 3.63929 4.57303 1.71242 4.94304 4.17545 3.70408 4.70394 4.86051 3.53036 4.85853 3.04211 3.46413 6.26405 0.94921 3.27601 2.79056 7.42102 2.17522 4.05197 3.42813 3.38092 2.54418 7.75388 2.09041 4.20279 1.39422 3.80665 3.5726 3.39446 2.50704 5.4793 3.93694 2.81428 2.28755 3.57197 3.38919 3.94306 2.74739 2.74739 2.59776 3.14345 5.65215 3.09345 3.79738 2.73613 3.20116 8.5834 2.94187 1.78857 3.99917 4.77272 3.33425 3.04196 3.45204 3.45204 3.99448 2.95618 3.37772 7.33342 1.217 3.17881 3.47815 3.75691 4.84608 2.85873 8.45793 2.88086 4.09128 7.75388 2.62955 3.72755 1.06758 2.22306 3.45014 2.59432 2.84578 3.19619 3.52513 3.47423 2.79915 2.85873 2.87184 2.19899 4.90967 3.109 2.95553 3.97924 3.46464 2.17626 3.4145 3.59506 1.48785 5.90904 2.41269 2.19274 8.26615 0.867501 4.97683 4.50838 2.93488 2.3714 2.94013 4.59271 4.16111 1.27975 3.26939 4.17714 4.65563 2.38406 8.29924 1.3251 8.01306 1.76958 3.50856 3.75691 1.84716 2.70815 2.50829 2.49617 3.85748 2.31574 0.915496 4.48588 4.48588 2.86102 2.24902 5.54469 4.03435 3.04868 4.10541 4.09919 3.57197 3.66231 4.10796 3.38098 5.38173 0.681402 0.948927 3.69349 1.8772 2.96074 7.53685 3.10678 3.14345 2.8004 3.22487 5.73137 1.00124 1.00007 3.77705 3.7737 3.93929 5.38173 4.14876 3.33706 2.98012 2.98936 1.91961 5.72391 3.109 1.6172 1.56046 3.19805 2.2536 4.81571 2.84611 2.82702 3.19496 3.89958 4.71336 1.91961 4.05227 4.2879 3.19496 3.49209 2.77488 5.61912 4.12571 3.81375 3.15923 7.49796 2.17467 3.24527 3.49402 3.38616 3.93398 3.47885 3.2674 0.648521 6.81461 2.44319 2.47754 2.8953 3.2216 1.56046 7.01527 7.401 3.48555 2.63037 4.39022 2.63601 1.6763 3.85559 3.12891 2.60317 6.4368 5.54469 0.638888 2.12359 2.80964 3.04529 4.00326 2.66546 6.1071 1.44978 1.50967 2.39384 3.01923 2.7444 2.70815 4.47052 0.496724 3.01923 4.59639 2.18774 0.741147 7.12864 2.98579 3.49209 2.18774 3.59974 2.73117 0.741147 2.87104 3.04079 6.29849 8.5834 2.54823 3.04211 4.34596 4.35846 2.51779 2.83387 4.04042 5.30489 2.58424 3.44012 4.02714 6.36709 2.09207 3.32223 4.48342 3.36159 3.3507 3.0877 3.7438 6.5046 3.48084 3.42813 3.77567 3.55492 3.34081 2.22401 4.84325 1.06758 6.54193 5.72645 3.82097 2.85037 2.85831 4.93206 3.08027 3.75597 3.77442 3.98497 1.32136 3.94242 3.46739 3.45014 3.43728 3.4858 4.2391 3.12734 2.85024 2.79056 3.06471 3.86325 5.72391 4.71336 3.85271 4.67588 2.6026 2.7175 2.72464 3.16427 3.16427 3.2813 1.94416 2.44722 4.28669 2.6026 2.7861 5.98773 3.79738 3.80098 0.970087 5.31039 2.50791 3.8053 2.85236 2.19881 6.04153 5.50009 2.54604 3.53951 4.74239 4.74791 2.4893 5.31039 3.81857 3.19619 7.33342 3.30184 1.94416 3.17344 3.40653 4.54211 4.47735 4.65696 2.51779 3.40801 3.35551 2.34628 7.71347 2.51078 3.34081 3.85748 3.5326 3.47484 4.1603 2.64647 1.40131 3.48125 6.54193 3.72755 3.90014 1.06474 4.38683 5.35235 4.55729 1.16136 1.57794 2.83565 3.67241 6.24022 0.948927 4.43943 3.56643 5.33993 2.98012 4.17443 4.79885 7.97163 2.68241 1.16767 4.56706 2.78076 1.57405 5.36624 2.59713 1.2234 4.17927 4.59884 4.7652 1.37513 2.83835 1.38715 4.30122 4.97617 3.44224 2.63037 3.88585 3.24925 3.15923 4.0377 2.9964 4.52611 7.01833 2.37395 2.98086 2.9686 2.68972 2.52188 2.70116 4.22707 1.62617 4.24596 2.93488 3.46846 1.90647 1.41117 6.16692 3.76189 3.06636 7.64925 3.19625 3.93094 2.99616 3.4145 4.88312 2.26483 3.88184 1.42003 3.12172 4.9618 1.16767 9.71126 1.28216 4.07206 1.6763 3.78826 3.18655 2.39998 3.48555 3.48765 3.78826 6.4368 2.54615 3.88585 3.90569 3.94129 3.22445 5.46509 3.7657 2.87893 1.42003 7.61462 3.22845 4.53836 2.86102 3.41845 3.20783 2.84713 5.60033 1.32136 4.00942 2.02626 3.44224 3.09881 5.91218 2.36477 3.8486 3.26939 4.11627 4.67651 1.71242 1.12287 4.59639 2.39384 7.64525 2.55632 4.82112 2.36112 3.08027 1.50176 6.32781 2.84611 2.24514 3.07034 2.73613 2.85236 2.82887 2.85513 2.85831 4.35617 1.06474 2.24682 3.18787 2.88969 3.76048 1.52342 4.86051 4.48588 3.45017 4.02714 1.24631 5.27519 3.90187 4.59884 1.42451 2.74739 7.06401 1.3302 3.87759 3.94129 1.31813 1.50629 6.90749 2.3313 1.57794 2.28021 5.59071 3.03988 1.57405 3.90187 2.95651 3.36159 0.376156 5.49046 2.1197 3.98291 3.19496 1.85365 3.88913 1.41117 6.22066 2.5634 5.1938 3.16427 2.37301 2.28663 2.24499 2.8953 4.92222 2.55341 6.85331 2.83835 3.61885 2.88128 5.73137 3.22487 1.13871 3.80735 3.42327 2.15562 2.47754 7.01527 1.6172 4.90967 3.41352 3.34583 2.98579 7.12864 2.73117 2.48624 2.66546 2.66546 0.496724 4.36252 4.75716 3.98335 2.81284 3.30701 4.95659 3.39913 2.18377 2.87852 6.30463 2.18774 3.81375 1.48785 3.75346 2.41691 6.1071 2.66546 2.94869 6.40176 3.45204 1.39397 3.41845 3.98497 0.373815 
</DataArray>
<DataArray type="Float64" Name="wall variable 0" format="ascii">
0 0 0 0 0 0 0 0 0 0 0 0 0 0 0 0 0 0 0 0 0 0 0 0 0 0 0 0 0 0 0 0 0 0 0 0 0 0 0 0 0 0 0 0 0 0 0 0 0 0 0 0 0 0 0 0 0 0 0 0 0 0 0 0 0 0 0 0 0 0 0 0 0 0 0 0 0 0 0 0 0 0 0 0 0 0 0 0 0 0 0 0 0 0 0 0 0 0 0 0 0 0 0 0 0 0 0 0 0 0 0 0 0 0 0 0 0 0 0 0 0 0 0 0 0 0 0 0 0 0 0 0 0 0 0 0 0 0 0 0 0 0 0 0 0 0 0 0 0 0 0 0 0 0 0 0 0 0 0 0 0 0 0 0 0 0 0 0 0 0 0 0 0 0 0 0 0 0 0 0 0 0 0 0 0 0 0 0 0 0 0 0 0 0 0 0 0 0 0 0 0 0 0 0 0 0 0 0 0 0 0 0 0 0 0 0 0 0 0 0 0 0 0 0 0 0 0 0 0 0 0 0 0 0 0 0 0 0 0 0 0 0 0 0 0 0 0 0 0 0 0 0 0 0 0 0 0 0 0 0 0 0 0 0 0 0 0 0 0 0 0 0 0 0 0 0 0 0 0 0 0 0 0 0 0 0 0 0 0 0 0 0 0 0 0 0 0 0 0 0 0 0 0 0 0 0 0 0 0 0 0 0 0 0 0 0 0 0 0 0 0 0 0 0 0 0 0 0 0 0 0 0 0 0 0 0 0 0 0 0 0 0 0 0 0 0 0 0 0 0 0 0 0 0 0 0 0 0 0 0 0 0 0 0 0 0 0 0 0 0 0 0 0 0 0 0 0 0 0 0 0 0 0 0 0 0 0 0 0 0 0 0 0 0 0 0 0 0 0 0 0 0 0 0 0 0 0 0 0 0 0 0 0 0 0 0 0 0 0 0 0 0 0 0 0 0 0 0 0 0 0 0 0 0 0 0 0 0 0 0 0 0 0 0 0 0 0 0 0 0 0 0 0 0 0 0 0 0 0 0 0 0 0 0 0 0 0 0 0 0 0 0 0 0 0 0 0 0 0 0 0 0 0 0 0 0 0 0 0 0 0 0 0 0 0 0 0 0 0 0 0 0 0 0 0 0 0 0 0 0 0 0 0 0 0 0 0 0 0 0 0 0 0 0 0 0 0 0 0 0 0 0 0 0 0 0 0 0 0 0 0 0 0 0 0 0 0 0 0 0 0 0 0 0 0 0 0 0 0 0 0 0 0 0 0 0 0 0 0 0 0 0 0 0 0 0 0 0 0 0 0 0 0 0 0 0 0 0 0 0 0 0 0 0 0 0 0 0 0 0 0 0 0 0 0 0 0 0 0 0 0 0 0 0 0 0 0 0 0 0 0 0 0 0 0 0 0 0 0 0 0 0 0 0 0 0 0 0 0 0 0 0 0 0 0 0 0 0 0 0 0 0 0 0 0 0 0 0 0 0 0 0 0 0 0 0 0 0 0 0 0 0 0 0 0 0 0 0 0 0 0 0 0 0 0 0 0 0 0 0 0 0 0 0 0 0 0 0 0 0 0 0 0 0 0 0 0 0 0 0 0 0 0 0 0 0 0 0 0 0 0 0 0 0 0 0 0 0 0 0 0 0 0 0 0 0 0 0 0 0 0 0 0 0 0 0 0 0 0 0 0 0 0 0 0 0 0 0 0 0 0 0 0 0 0 0 0 0 0 0 0 0 0 0 0 0 0 0 0 0 0 0 0 0 0 0 0 0 0 0 0 0 0 0 0 0 0 0 0 0 0 0 0 0 0 0 0 0 0 0 0 0 0 0 0 0 0 0 0 0 0 0 0 0 0 0 0 0 0 0 0 0 0 0 0 0 0 0 0 0 0 0 0 0 0 0 0 0 0 0 0 0 0 0 0 0 0 0 0 0 0 0 0 0 0 0 0 0 0 0 0 0 0 0 0 0 0 0 0 0 0 0 0 0 0 0 0 0 0 0 0 0 0 0 0 0 0 0 0 0 0 0 0 0 0 0 0 0 0 0 0 0 0 0 0 0 0 0 0 0 0 0 0 0 0 0 0 0 0 0 0 0 0 0 0 0 0 0 0 0 0 0 0 0 0 0 0 0 0 0 0 0 0 0 0 0 0 0 0 0 0 0 0 0 0 0 0 0 0 0 0 0 0 0 0 0 0 0 0 0 0 0 0 0 0 0 0 0 0 0 0 0 0 0 0 0 0 0 0 0 0 0 0 0 0 0 0 0 0 0 0 0 0 0 0 0 0 0 0 0 0 0 0 0 0 0 0 0 0 0 0 0 0 0 0 0 0 0 0 0 0 0 0 0 0 0 0 0 0 0 0 0 0 0 0 0 0 0 0 0 0 0 0 0 0 0 0 0 0 0 0 0 0 0 0 0 0 0 0 0 0 0 0 0 0 0 0 0 0 0 0 0 0 0 0 0 0 0 0 0 0 0 0 0 0 0 0 0 0 0 0 0 0 0 0 0 0 0 0 0 0 0 0 0 0 0 0 0 0 0 0 0 0 0 0 0 0 0 0 0 0 0 0 0 0 0 0 0 0 0 0 0 0 0 0 0 0 0 0 0 0 0 0 0 0 0 0 0 0 0 0 0 0 0 0 0 0 0 0 0 0 0 0 0 0 0 0 0 0 0 0 0 0 0 0 0 0 0 0 0 0 0 0 0 0 0 0 0 0 0 0 0 0 0 0 0 0 0 0 0 0 0 0 0 0 0 0 0 0 0 0 0 0 0 0 0 0 0 0 0 0 0 0 0 0 0 0 0 0 0 0 0 0 0 0 0 0 0 0 0 0 0 0 0 0 0 0 0 0 0 0 0 0 0 0 0 0 0 0 0 0 0 0 0 0 0 0 0 0 0 0 0 0 0 0 0 0 0 0 0 0 0 0 0 0 0 0 0 0 0 0 0 0 0 0 0 0 0 0 0 0 0 0 0 0 0 0 0 0 0 0 0 0 0 0 0 0 0 0 0 0 0 0 0 0 0 0 0 0 0 0 0 0 0 0 0 0 0 0 0 0 0 0 0 0 0 0 0 0 0 0 0 0 0 0 0 0 0 0 0 0 0 0 0 0 0 0 0 0 0 0 0 0 0 0 0 0 0 0 0 0 0 0 0 0 0 0 0 0 0 0 0 0 0 0 0 0 0 0 0 0 0 0 0 0 0 0 0 0 0 0 0 0 0 0 0 0 0 0 0 0 0 0 0 0 0 0 0 0 0 0 0 0 0 0 0 0 0 0 0 0 0 0 0 0 0 0 0 0 0 0 0 0 0 0 0 0 0 0 0 0 0 0 0 0 0 0 0 0 0 0 0 0 0 0 0 0 0 0 0 0 0 0 0 0 0 0 0 0 0 0 0 0 0 0 0 0 0 0 0 0 0 0 0 0 0 0 0 0 0 0 0 0 0 0 0 0 0 0 0 0 0 0 0 0 0 0 0 0 0 0 0 0 0 0 0 0 0 0 0 0 0 0 0 0 0 0 0 0 0 0 0 0 0 0 0 0 0 0 0 0 0 0 0 0 0 0 0 0 0 0 0 0 0 0 0 0 0 0 
</DataArray>
<DataArray type="Float64" Name="wall variable 1" format="ascii">
0 0 0 0 0 0 0 0 0 0 0 0 0 0 0 0 0 0 0 0 0 0 0 0 0 0 0 0 0 0 0 0 0 0 0 0 0 0 0 0 0 0 0 0 0 0 0 0 0 0 0 0 0 0 0 0 0 0 0 0 0 0 0 0 0 0 0 0 0 0 0 0 0 0 0 0 0 0 0 0 0 0 0 0 0 0 0 0 0 0 0 0 0 0 0 0 0 0 0 0 0 0 0 0 0 0 0 0 0 0 0 0 0 0 0 0 0 0 0 0 0 0 0 0 0 0 0 0 0 0 0 0 0 0 0 0 0 0 0 0 0 0 0 0 0 0 0 0 0 0 0 0 0 0 0 0 0 0 0 0 0 0 0 0 0 0 0 0 0 0 0 0 0 0 0 0 0 0 0 0 0 0 0 0 0 0 0 0 0 0 0 0 0 0 0 0 0 0 0 0 0 0 0 0 0 0 0 0 0 0 0 0 0 0 0 0 0 0 0 0 0 0 0 0 0 0 0 0 0 0 0 0 0 0 0 0 0 0 0 0 0 0 0 0 0 0 0 0 0 0 0 0 0 0 0 0 0 0 0 0 0 0 0 0 0 0 0 0 0 0 0 0 0 0 0 0 0 0 0 0 0 0 0 0 0 0 0 0 0 0 0 0 0 0 0 0 0 0 0 0 0 0 0 0 0 0 0 0 0 0 0 0 0 0 0 0 0 0 0 0 0 0 0 0 0 0 0 0 0 0 0 0 0 0 0 0 0 0 0 0 0 0 0 0 0 0 0 0 0 0 0 0 0 0 0 0 0 0 0 0 0 0 0 0 0 0 0 0 0 0 0 0 0 0 0 0 0 0 0 0 0 0 0 0 0 0 0 0 0 0 0 0 0 0 0 0 0 0 0 0 0 0 0 0 0 0 0 0 0 0 0 0 0 0 0 0 0 0 0 0 0 0 0 0 0 0 0 0 0 0 0 0 0 0 0 0 0 0 0 0 0 0 0 0 0 0 0 0 0 0 0 0 0 0 0 0 0 0 0 0 0 0 0 0 0 0 0 0 0 0 0 0 0 0 0 0 0 0 0 0 0 0 0 0 0 0 0 0 0 0 0 0 0 0 0 0 0 0 0 0 0 0 0 0 0 0 0 0 0 0 0 0 0 0 0 0 0 0 0 0 0 0 0 0 0 0 0 0 0 0 0 0 0 0 0 0 0 0 0 0 0 0 0 0 0 0 0 0 0 0 0 0 0 0 0 0 0 0 0 0 0 0 0 0 0 0 0 0 0 0 0 0 0 0 0 0 0 0 0 0 0 0 0 0 0 0 0 0 0 0 0 0 0 0 0 0 0 0 0 0 0 0 0 0 0 0 0 0 0 0 0 0 0 0 0 0 0 0 0 0 0 0 0 0 0 0 0 0 0 0 0 0 0 0 0 0 0 0 0 0 0 0 0 0 0 0 0 0 0 0 0 0 0 0 0 0 0 0 0 0 0 0 0 0 0 0 0 0 0 0 0 0 0 0 0 0 0 0 0 0 0 0 0 0 0 0 0 0 0 0 0 0 0 0 0 0 0 0 0 0 0 0 0 0 0 0 0 0 0 0 0 0 0 0 0 0 0 0 0 0 0 0 0 0 0 0 0 0 0 0 0 0 0 0 0 0 0 0 0 0 0 0 0 0 0 0 0 0 0 0 0 0 0 0 0 0 0 0 0 0 0 0 0 0 0 0 0 0 0 0 0 0 0 0 0 0 0 0 0 0 0 0 0 0 0 0 0 0 0 0 0 0 0 0 0 0 0 0 0 0 0 0 0 0 0 0 0 0 0 0 0 0 0 0 0 0 0 0 0 0 0 0 0 0 0 0 0 0 0 0 0 0 0 0 0 0 0 0 0 0 0 0 0 0 0 0 0 0 0 0 0 0 0 0 0 0 0 0 0 0 0 0 0 0 0 0 0 0 0 0 0 0 0 0 0 0 0 0 0 0 0 0 0 0 0 0 0 0 0 0 0 0 0 0 0 0 0 0 0 0 0 0 0 0 0 0 0 0 0 0 0 0 0 0 0 0 0 0 0 0 0 0 0 0 0 0 0 0 0 0 0 0 0 0 0 0 0 0 0 0 0 0 0 0 0 0 0 0 0 0 0 0 0 0 0 0 0 0 0 0 0 0 0 0 0 0 0 0 0 0 0 0 0 0 0 0 0 0 0 0 0 0 0 0 0 0 0 0 0 0 0 0 0 0 0 0 0 0 0 0 0 0 0 0 0 0 0 0 0 0 0 0 0 0 0 0 0 0 0 0 0 0 0 0 0 0 0 0 0 0 0 0 0 0 0 0 0 0 0 0 0 0 0 0 0 0 0 0 0 0 0 0 0 0 0 0 0 0 0 0 0 0 0 0 0 0 0 0 0 0 0 0 0 0 0 0 0 0 0 0 0 0 0 0 0 0 0 0 0 0 0 0 0 0 0 0 0 0 0 0 0 0 0 0 0 0 0 0 0 0 0 0 0 0 0 0 0 0 0 0 0 0 0 0 0 0 0 0 0 0 0 0 0 0 0 0 0 0 0 0 0 0 0 0 0 0 0 0 0 0 0 0 0 0 0 0 0 0 0 0 0 0 0 0 0 0 0 0 0 0 0 0 0 0 0 0 0 0 0 0 0 0 0 0 0 0 0 0 0 0 0 0 0 0 0 0 0 0 0 0 0 0 0 0 0 0 0 0 0 0 0 0 0 0 0 0 0 0 0 0 0 0 0 0 0 0 0 0 0 0 0 0 0 0 0 0 0 0 0 0 0 0 0 0 0 0 0 0 0 0 0 0 0 0 0 0 0 0 0 0 0 0 0 0 0 0 0 0 0 0 0 0 0 0 0 0 0 0 0 0 0 0 0 0 0 0 0 0 0 0 0 0 0 0 0 0 0 0 0 0 0 0 0 0 0 0 0 0 0 0 0 0 0 0 0 0 0 0 0 0 0 0 0 0 0 0 0 0 0 0 0 0 0 0 0 0 0 0 0 0 0 0 0 0 0 0 0 0 0 0 0 0 0 0 0 0 0 0 0 0 0 0 0 0 0 0 0 0 0 0 0 0 0 0 0 0 0 0 0 0 0 0 0 0 0 0 0 0 0 0 0 0 0 0 0 0 0 0 0 0 0 0 0 0 0 0 0 0 0 0 0 0 0 0 0 0 0 0 0 0 0 0 0 0 0 0 0 0 0 0 0 0 0 0 0 0 0 0 0 0 0 0 0 0 0 0 0 0 0 0 0 0 0 0 0 0 0 0 0 0 0 0 0 0 0 0 0 0 0 0 0 0 0 0 0 0 0 0 0 0 0 0 0 0 0 0 0 0 0 0 0 0 0 0 0 0 0 0 0 0 0 0 0 0 0 0 0 0 0 0 0 0 0 0 0 0 0 0 0 0 0 0 0 0 0 0 0 0 0 0 0 0 0 0 0 0 0 0 0 0 0 0 0 0 0 0 0 0 0 0 0 0 0 0 0 0 0 0 0 0 0 0 0 0 0 0 0 0 0 0 0 0 0 0 0 0 0 0 0 0 0 0 0 0 0 0 0 0 0 0 0 0 0 0 0 0 0 0 0 
</DataArray>
<DataArray type="Float64" Name="wall variable 2" format="ascii">