<VTKFile type="UnstructuredGrid" version="0.1">
<UnstructuredGrid>
<Piece  NumberOfPoints="    3390" NumberOfCells="    2488">
<Points>
<DataArray type="Float64" NumberOfComponents="3" format="ascii">
-26.7583 32.3333 0 
8.24491 8.09125 0 
47.2038 -5.83416 0 
1.17382 -58.4143 0 
-25.5397 45.4366 0 
-35.4667 16.1666 0 
7.7153 -40.5977 0 
-39.0754 -49.4285 0 
-0.0932562 -48.7723 0 
1.37315 -25.5591 0 
-58.9214 14.2647 0 
44.4796 -21.25 0 
-13.3928 38.5032 0 
6.28491 -60.2955 0 
12.7067 12.4488 0 
-9.94984 -39.7314 0 
-19.4247 17.2014 0 
-47.5891 29.5928 0 
-27.6103 -35.9394 0 
29.5713 -18.0837 0 
22.5792 56.1804 0 
40.5904 48.488 0 
-47.1216 -38.8315 0 
5.28285 0.559835 0 
0.916977 -29.353 0 
51.8033 -9.698 0 
-24.5668 -30.9208 0 
-25.639 -51.9477 0 
-53.4726 14.8269 0 
-59.2755 -12.2254 0 
25.2492 47.1813 0 
42.1472 21.5968 0 
-20.7805 30.8361 0 
-27.6856 -2.02545 0 
-26.9747 -13.2191 0 
-11.1318 -39.5341 0 
-13.1545 33.7051 0 
-8.5557 47.4821 0 
32.7465 53.0817 0 
10.0414 -43.9907 0 
37.1469 33.039 0 
-47.237 -3.72755 0 
-0.172467 -9.4815 0 
-6.19067 63.0012 0 
16.6254 45.9885 0 
-26.0255 39.3958 0 
-12.0596 -1.00522 0 
-26.0544 31.4625 0 
5.62823 20.2416 0 
-4.34957 -40.7646 0 
38.5246 -33.4379 0 
-0.746277 -29.4666 0 
-23.8435 -8.73136 0 
43.2039 -39.8308 0 
-23.972 -22.702 0 
-41.606 6.55635 0 
-9.48917 -49.6831 0 
36.0199 -38.2932 0 
13.0613 -25.7493 0 
16.6706 51.7329 0 
-25.1718 31.4762 0 
-33.155 0.298814 0 
-5.07904 -40.9855 0 
39.115 -25.0415 0 
47.3744 9.38807 0 
8.70017 54.9873 0 
23.3836 29.619 0 
-22.4416 -35.8403 0 
22.8587 -16.6187 0 
-30.7208 38.8093 0 
14.0423 -3.70241 0 
-16.4495 35.3895 0 
39.8819 -41.2716 0 
33.2404 -12.8583 0 
17.5409 2.28288 0 
-45.4886 -19.4924 0 
23.3208 -25.7411 0 
-42.8508 43.9118 0 
24.8888 -44.7822 0 
-10.7286 47.6657 0 
-32.5064 0.0703007 0 
29.5134 -37.0969 0 
-9.73139 -10.3528 0 
-13.227 -40.2598 0 
52.1434 25.9945 0 
-0.0498351 25.3438 0 
29.1424 10.3177 0 
-1.02622 55.9631 0 
-44.7008 8.55016 0 
-36.3529 -9.0613 0 
1.88349 -46.646 0 
-27.6777 -27.4806 0 
23.2471 31.1364 0 
51.3542 -13.7328 0 
28.6999 -37.7622 0 
22.388 20.8842 0 
29.1818 -2.20216 0 
-20.887 39.1087 0 
36.9937 16.7017 0 
11.2459 -34.3542 0 
-40.8619 -33.5583 0 
-49.348 21.404 0 
48.5057 12.5329 0 
-62.4259 7.42897 0 
30.9966 -3.60889 0 
-13.7631 -1.05307 0 
-61.2272 -4.63185 0 
30.1051 -2.60021 0 
17.1623 -30.2236 0 
-52.375 8.69928 0 
6.568 -41.4041 0 
-16.9952 12.2275 0 
-28.2705 -51.4012 0 
24.4008 39.6096 0 
47.2078 -19.4991 0 
35.5695 -40.2656 0 
-31.1801 -28.2191 0 
6.91749 -24.1236 0 
-4.96313 -22.3669 0 
37.9438 -4.85159 0 
30.602 7.62578 0 
6.59087 -0.849824 0 
29.907 -52.3578 0 
-0.271447 12.508 0 
13.5196 -58.053 0 
-40.8855 46.441 0 
-15.1038 -20.9692 0 
43.5534 -39.3696 0 
30.1203 55.4597 0 
9.06038 -52.6578 0 
20.827 -38.2 0 
-21.9913 -1.99248 0 
-43.9126 -32.1802 0 
-12.4783 -17.8426 0 
36.8493 -21.1555 0 
-46.6518 -16.8234 0 
32.8187 -5.70745 0 
33.8154 -28.1838 0 
-47.6023 -7.88465 0 
-26.1621 44.8542 0 
-53.2064 4.09069 0 
41.6259 -19.1427 0 
11.2497 23.1496 0 
-5.50969 16.0021 0 
-33.0651 7.02778 0 
3.43772 31.9417 0 
19.1555 39.1131 0 
22.8131 -25.5932 0 
42.2138 22.4645 0 
13.1091 41.8179 0 
52.5034 -3.3655 0 
39.7881 12.2938 0 
-26.9155 -2.13709 0 
-22.4618 45.7972 0 
28.1304 -32.7052 0 
22.1668 35.9186 0 
8.72792 19.3917 0 
19.2996 12.3871 0 
-56.7219 -10.1524 0 
8.0049 35.6552 0 
-22.2377 -3.74234 0 
-13.1943 -14.5734 0 
3.52993 60.0678 0 
-45.4762 36.6268 0 
34.9617 9.73975 0 
22.391 -7.4802 0 
24.848 33.0412 0 
16.9923 -18.09 0 
-3.70583 51.9187 0 
-17.0722 -25.1369 0 
54.6562 20.2443 0 
-15.2485 54.4535 0 
-34.6071 14.6191 0 
51.8697 13.1822 0 
5.57873 -8.62509 0 
-29.0464 39.5267 0 
-13.6011 25.3347 0 
-26.799 3.57533 0 
23.6801 29.1755 0 
13.9452 -8.10339 0 
-23.4317 -55.154 0 
-40.8291 -20.3183 0 
-45.6979 22.1096 0 
-3.2269 -50.6055 0 
-50.4552 23.9013 0 
45.958 -27.5464 0 
-36.6184 10.2917 0 
10.8696 29.1249 0 
-34.7464 48.0105 0 
-27.4742 -12.4452 0 
48.7075 0.125085 0 
-53.0107 15.1469 0 
-39.797 13.9752 0 
47.9487 -29.6355 0 
-26.1408 5.2822 0 
29.8851 -18.3849 0 
40.6628 36.6216 0 
-18.9034 10.5297 0 
54.4501 -19.6532 0 
-46.5903 38.0697 0 
44.9045 -25.2773 0 
29.5385 -2.50103 0 
-15.0463 11.0307 0 
-21.7719 45.6489 0 
-12.8399 -31.2709 0 
-1.05673 14.8511 0 
24.9567 -24.8961 0 
-13.7717 35.6018 0 
-1.9239 -5.05434 0 
-36.6703 18.3186 0 
22.0928 -55.6617 0 
51.5661 12.9875 0 
45.6987 35.575 0 
1.11565 47.4895 0 
6.25511 25.4712 0 
-22.2707 -46.0583 0 
-32.1849 27.838 0 
-3.72542 40.5015 0 
38.1441 -1.0131 0 
-4.805 26.4306 0 
-13.6851 18.9006 0 
-26.2427 3.83706 0 
37.0509 -47.0383 0 
20.5178 -55.5795 0 
12.0674 24.9151 0 
18.2654 -32.2028 0 
13.29 -49.7793 0 
-3.77456 50.8096 0 
41.6426 -32.3682 0 
39.0488 -41.6908 0 
-51.7326 -24.2661 0 
16.0837 -2.40661 0 
-29.658 23.3558 0 
-2.88511 -51.1768 0 
-54.1056 -20.7259 0 
19.6799 -38.4496 0 
-47.4664 -12.0419 0 
-8.68409 6.27169 0 
-24.0221 11.1409 0 
-20.4432 -16.8053 0 
29.2082 -53.6641 0 
-8.46918 -60.9736 0 
-28.3133 50.6725 0 
-38.2073 -1.83153 0 
21.8699 -11.1251 0 
-32.107 15.291 0 
1.89482 12.7252 0 
-4.85181 -21.342 0 
-9.35751 17.9786 0 
12.1789 48.5949 0 
-10.1904 -43.9977 0 
46.6151 38.8248 0 
-35.787 -17.5683 0 
26.14 -10.5984 0 
6.85437 -19.846 0 
35.9261 -37.6293 0 
-28.97 -6.42038 0 
9.90171 -30.4868 0 
26.2098 -2.31043 0 
14.5162 -48.9825 0 
-20.7158 -31.8273 0 
-36.0357 -26.5284 0 
-25.8976 15.8963 0 
39.6499 -32.4161 0 
2.96291 -16.2378 0 
45.1492 31.1022 0 
-9.45006 8.58098 0 
0.515326 42.1056 0 
11.8256 -39.8019 0 
50.4111 32.1787 0 
-12.4849 26.2158 0 
33.2725 45.545 0 
-23.7147 -37.2754 0 
39.847 20.0372 0 
11.0482 63.1136 0 
-7.30835 -61.0244 0 
52.7711 16.2887 0 
-24.5938 20.0744 0 
-18.7311 -39.0495 0 
-5.96566 -4.75758 0 
10.0384 36.0448 0 
-34.5003 0.211198 0 
35.8783 -47.8075 0 
35.7328 32.0685 0 
-0.0257165 -44.7111 0 
-54.4327 28.0423 0 
-53.8992 15.1481 0 
15.1912 58.2695 0 
-45.4794 37.1853 0 
38.5176 5.88336 0 
-29.7079 -12.5515 0 
-4.68559 -24.3097 0 
-3.11886 16.6272 0 
-50.2648 -24.3052 0 
46.9064 6.51266 0 
40.6176 -8.12616 0 
-10.1526 -25.5543 0 
-1.26268 24.5683 0 
-55.3141 -18.1452 0 
-5.1707 -27.3469 0 
61.8046 -2.45253 0 
7.24685 19.6557 0 
50.9395 -13.1065 0 
-6.67621 42.67 0 
3.78714 39.9554 0 
-45.0898 19.8628 0 
7.83406 30.0002 0 
1.5853 12.9825 0 
32.1303 21.2062 0 
20.4087 23.4732 0 
-10.3289 -59.5429 0 
24.2569 -48.2997 0 
-3.88009 62.939 0 
-39.7999 -34.1928 0 
-37.5098 47.3293 0 
33.0787 45.485 0 
-46.227 -39.975 0 
-5.107 -12.5864 0 
-46.539 22.1996 0 
33.4044 -32.7603 0 
39.7332 42.1451 0 
28.007 -6.14124 0 
-3.89234 38.3212 0 
21.444 1.36534 0 
43.11 29.8368 0 
-32.8862 32.2969 0 
51.8226 -10.2311 0 
6.1946 -19.5736 0 
-34.9839 38.1877 0 
-22.7527 0.0532398 0 
15.161 -10.228 0 
-28.8484 50.5997 0 
-35.3996 -27.6843 0 
56.7768 8.25733 0 
16.7754 23.806 0 
16.5745 -17.0924 0 
-42.5826 -28.6212 0 
-41.3353 25.9652 0 
-37.9782 -5.46696 0 
31.8876 -49.2506 0 
-38.3209 24.0346 0 
-26.8437 -25.8597 0 
19.0494 -34.8986 0 
38.7187 6.23987 0 
-43.6099 -42.7254 0 
-16.2192 49.4342 0 
-1.79042 16.0567 0 
-48.6291 -6.18224 0 
-8.44178 5.06261 0 
-17.4126 -43.7188 0 
-26.7546 30.7017 0 
-12.1685 -31.4615 0 
-14.1679 4.7445 0 
22.9148 -45.0349 0 
59.3094 -17.2805 0 
-17.7129 30.1708 0 
-36.8321 19.9115 0 
34.379 -28.2936 0 
-40.9165 12.0626 0 
-33.6318 39.2747 0 
44.8277 -23.4632 0 
-7.59326 -39.9271 0 
-38.5196 33.6541 0 
-18.0924 5.87754 0 
-33.193 -38.7903 0 
-41.15 -41.4134 0 
-8.20439 31.7772 0 
38.7511 24.8769 0 
44.5442 15.9278 0 
0.101985 -0.562481 0 
-1.05569 -17.2914 0 
-17.0647 -41.4553 0 
-54.0047 -1.33202 0 
17.8421 47.1729 0 
2.74485 -16.8065 0 
-30.7716 -29.0063 0 
27.805 -31.5871 0 
0.230163 -29.6592 0 
-9.94106 9.71317 0 
35.5752 44.2601 0 
-51.3731 7.11518 0 
-22.5407 21.6972 0 
51.6269 5.09896 0 
-22.1348 -56.273 0 
-13.135 -47.0065 0 
-24.5896 13.5435 0 
32.365 20.2637 0 
48.4671 18.7135 0 
-7.8025 27.8919 0 
-24.8718 30.4672 0 
46.3039 -12.9146 0 
-5.05179 3.31411 0 
16.5418 -55.4493 0 
43.6589 -0.811602 0 
14.1522 -7.13971 0 
-31.9616 1.63538 0 
-41.1117 -20.96 0 
-36.9788 -44.5928 0 
-9.4302 27.1276 0 
-4.43388 62.7333 0 
31.0621 -22.3452 0 
-14.0655 -20.472 0 
39.2584 -18.2054 0 
-44.04 14.4092 0 
-46.7301 38.0288 0 
-41.3939 0.202676 0 
-14.4759 -57.1338 0 
-19.6146 10.3561 0 
-5.3031 -33.6217 0 
9.42703 17.9288 0 
6.32577 53.9356 0 
29.6145 21.7946 0 
24.0857 15.477 0 
-55.5942 -2.55986 0 
-30.1288 -43.1612 0 
28.2862 49.1408 0 
-5.59133 0.51275 0 
-0.844769 7.75692 0 
-36.9042 -6.61395 0 
31.0506 -27.3076 0 
27.8222 43.5714 0 
16.7895 29.1148 0 
-34.4654 -28.3996 0 
52.4371 -22.7971 0 
35.7671 15.3865 0 
33.2028 52.161 0 
-32.5451 -20.2315 0 
21.2273 56.2957 0 
-30.1884 24.1627 0 
6.19535 12.245 0 
14.9689 -23.8303 0 
28.0202 26.4787 0 
-35.4438 11.4796 0 
53.9546 11.7749 0 
-17.3738 -0.893777 0 
-48.246 -7.18166 0 
-35.6527 -33.5152 0 
5.24265 -5.98519 0 
-17.2843 26.5304 0 
34.4115 0.473481 0 
-9.97642 -15.5298 0 
40.9921 3.95747 0 
21.9687 -44.9158 0 
35.9255 6.71874 0 
-30.9089 28.4016 0 
-20.3772 -17.3762 0 
-53.6256 -21.1507 0 
-42.2726 -42.6284 0 
-21.3784 44.8244 0 
-40.0677 -34.9173 0 
40.0843 -32.4617 0 
39.3396 -5.5225 0 
-57.6372 20.0421 0 
2.0591 31.2399 0 
-10.4327 -39.4143 0 
-30.8877 -49.1486 0 
-31.9078 -45.0638 0 
10.9776 -16.7367 0 
-11.1825 52.9122 0 
15.684 8.08956 0 
-39.3348 33.221 0 
-21.2003 -16.3793 0 
28.5217 35.0627 0 
-19.0361 24.8264 0 
-35.8667 11.1819 0 
9.94914 -19.2646 0 
-30.1538 38.7214 0 
-56.5912 -16.0289 0 
13.731 -49.7446 0 
44.2518 16.4781 0 
-24.4615 -8.902 0 
6.07589 -41.9869 0 
-31.9258 -48.5965 0 
25.5006 -43.892 0 
-10.7993 -47.9867 0 
-7.50787 -16.0341 0 
-0.315236 -17.8389 0 
31.4035 -21.6711 0 
-3.07384 57.5219 0 
59.4505 -15.4761 0 
11.0695 28.8699 0 
-15.2415 40.2628 0 
10.9205 -16.3075 0 
-8.3682 -4.98188 0 
8.60054 -39.123 0 
-6.45439 -4.55465 0 
-38.7121 41.2025 0 
22.6702 -6.61281 0 
4.04752 -11.0311 0 
3.4629 61.2989 0 
18.0236 1.51044 0 
40.0422 48.7537 0 
-3.21918 26.413 0 
[...]
<CellData Scalars="wall variable 0">
<DataArray type="Float64" Name="wall length" format="ascii">
0.754144 5.96703 1.56454 4.0822 4.97786 0.535673 5.32943 0.849127 5.25744 0.68287 10.9153 2.69066 1.44133 1.6597 5.0619 2.43881 5.47846 1.97374 9.76098 1.64675 0.304144 9.15158 1.01677 1.21769 5.47375 3.48129 2.07242 2.32534 3.45618 5.14301 5.01005 4.03243 2.67735 4.55384 0.678156 2.55395 4.31288 3.13017 0.349286 0.554285 7.11696 6.45573 1.94887 6.43339 4.34882 1.80179 3.292 1.47273 5.54244 4.62224 4.53429 0.446246 1.15069 4.95433 0.745565 4.87549 9.53513 2.34445 7.79046 0.220975 8.56347 2.2274 5.78275 1.27317 4.31138 1.1116 2.16025 6.13029 2.92481 1.05708 2.34445 1.14412 3.47831 0.624092 4.6106 0.43034 1.60162 4.58753 3.73081 1.44172 6.08863 3.4716 0.369183 2.34736 4.47017 0.717077 0.296785 5.88618 2.99926 1.23931 5.89913 2.41975 0.624092 7.44617 2.35723 2.12915 1.01964 1.5241 0.502377 2.11432 3.65171 4.97158 2.3515 7.01835 2.53932 2.73721 5.83889 4.01461 3.99558 2.34275 1.13306 0.457088 3.4716 4.25278 3.49253 3.23837 2.22454 1.11766 3.5264 3.97479 3.5654 2.67735 0.837299 0.337515 3.0414 3.11494 1.3355 5.8907 1.42672 6.98546 0.424079 1.47319 2.0928 4.84129 1.30808 1.79729 1.64955 7.11366 0.788947 3.52928 5.5444 2.69829 2.85781 3.51726 0.777789 1.56387 0.69011 7.03524 4.95433 7.31516 1.77247 5.51306 2.12265 2.53193 2.37124 5.75331 6.95932 0.850388 5.88273 0.658105 1.22346 2.00394 9.10916 0.473819 5.04127 1.45445 3.77603 7.85824 0.948011 5.57087 0.459745 2.88198 2.1267 7.6047 0.960186 8.34209 0.442652 0.540521 1.83937 5.98404 2.0506 0.789018 1.46043 6.30227 2.72791 3.00266 3.40621 3.90716 1.23765 6.0273 1.91501 1.12441 8.37308 1.19332 7.91164 0.326425 3.47333 0.336197 3.00736 2.07938 1.26716 3.63443 4.60381 0.833051 2.531 0.477996 2.35869 0.362216 1.45445 0.471462 0.739037 3.52981 1.50266 3.92386 7.89012 0.465117 8.18326 6.107 2.22454 2.00903 0.979274 3.18329 2.00964 0.626221 1.20087 6.0273 9.26974 1.91467 8.96416 0.14573 4.26874 3.18559 0.283346 1.31617 2.4123 5.89913 2.73795 1.01332 7.12301 0.526978 7.90288 3.60413 1.55548 8.23077 3.18644 4.65462 4.10218 5.91766 4.6728 1.22346 0.868285 7.61905 4.16583 0.131053 10.8277 1.47845 3.65663 6.6855 2.0506 0.961431 4.84837 4.03378 2.3059 2.57974 2.76171 5.80375 0.864115 5.43017 1.50924 8.59277 3.3663 5.09496 0.59877 1.70022 2.10524 1.62029 5.32736 3.96234 4.20036 2.70426 2.34011 5.90903 5.46864 4.97202 0.73943 4.9458 1.19742 1.70894 4.73698 0.646165 6.41302 4.91337 4.77372 2.33707 6.45573 0.354336 5.0274 4.33521 5.89543 0.17506 1.56851 6.79706 1.92132 3.00266 3.18695 2.57711 8.05875 0.605256 5.57105 4.6791 1.36612 0.164381 4.04418 2.91977 0.988494 10.0515 0.682859 3.05287 6.55671 2.35723 2.91638 1.12082 1.0797 2.11801 3.5743 2.20236 5.82778 1.46215 6.45953 3.54034 1.71691 4.44382 0.608165 4.61954 4.16813 3.54747 3.06406 0.719231 3.4472 8.1584 0.739129 1.19087 1.19442 6.66392 5.05819 4.17049 2.25847 7.9999 5.04412 6.1403 0.905659 1.92545 3.53991 4.25278 5.88618 2.6707 0.655198 2.49153 0.69881 0.682461 2.90461 5.97917 1.36496 2.68977 8.18326 5.80375 1.27796 4.37932 4.1284 5.43958 1.17803 1.16337 1.95633 6.41648 0.991126 9.76098 0.29277 1.3355 1.36712 3.4634 3.60413 0.238054 8.90905 0.523409 5.53846 0.678156 4.0441 0.618617 1.72724 4.31313 2.47933 6.047 0.227498 1.83864 3.37902 1.21441 1.38077 0.196119 3.54747 0.413917 0.693375 5.03051 0.731139 1.92545 9.59796 1.01964 8.67819 1.69149 1.70894 0.534269 7.1049 0.795653 4.97409 2.28789 4.02633 5.11083 5.25444 5.65866 0.166822 4.45252 1.83275 4.14276 3.05365 3.27886 1.1406 6.43498 1.13306 7.51239 3.35701 4.0661 4.54007 0.739129 6.59819 0.516844 5.95753 0.386591 6.35618 1.69149 1.02312 7.26605 0.341216 4.73841 4.73698 0.784873 7.04146 1.0797 3.15354 7.64414 2.88334 1.71691 1.41707 1.87638 2.41004 6.09688 4.21037 3.78808 5.16435 3.06938 2.71305 0.341216 0.155607 4.56581 1.12851 6.79565 0.524306 4.71157 2.08322 0.816313 5.5311 0.755006 3.89584 8.54242 0.999702 2.72269 7.9463 0.536763 1.31617 9.67861 0.659637 0.837796 7.79535 4.31386 2.0126 2.73857 1.18822 6.87627 4.7204 4.71018 0.523409 4.55384 5.8907 0.29277 1.62159 2.83326 1.45454 4.86089 5.38972 3.8733 7.0614 4.81358 0.436058 0.473819 2.62301 3.44269 2.31535 4.76605 1.21769 5.39182 0.948011 2.01784 1.0676 2.34581 0.404246 5.01005 1.15955 0.379949 6.18847 0.556162 5.05819 0.578952 6.18753 2.35705 3.47333 4.94851 7.8241 0.875717 7.64414 2.02153 3.05365 2.57908 3.36055 0.32114 3.71056 5.02894 4.26874 2.00868 1.88423 2.19661 5.60927 2.54082 3.6998 5.89204 0.59877 8.52725 1.32478 9.67861 0.283346 3.38368 6.14411 5.63116 1.27176 6.49576 2.88334 1.53572 7.30254 1.91588 4.44382 0.677347 6.76455 2.31278 0.259042 0.646165 4.73841 2.71305 2.51409 0.49956 7.0614 0.432745 4.34431 0.579633 4.0822 3.80645 2.93886 0.21129 0.191229 4.84232 4.60381 0.530857 4.10424 0.75621 3.14661 0.354442 1.61963 7.79535 5.25744 6.24163 6.20624 0.480123 6.43498 2.63726 1.45552 3.18329 0.535943 3.86094 3.93731 1.44172 0.59118 5.32058 0.541258 7.58966 3.48129 3.68394 4.15247 7.34836 2.88982 4.34431 2.79198 2.88198 9.25553 5.85479 2.82904 0.739037 5.00651 0.454147 0.750508 5.72301 2.86698 2.70204 2.08538 2.93477 0.970069 0.618617 0.778971 6.11067 1.77684 6.13029 0.901387 5.69402 5.85479 0.728094 4.76965 6.8704 0.725065 6.07715 3.50166 0.527728 4.9458 4.78401 0.436445 2.53721 5.5444 0.407124 2.69654 7.62715 0.717077 1.87477 5.04412 1.91876 2.09416 6.44623 5.15966 4.31288 4.10053 0.75621 4.71363 3.61865 2.2156 0.166822 0.325885 6.69394 5.34528 6.60559 0.579865 2.756 7.0382 3.39175 5.82778 1.99343 3.67169 0.579981 1.95756 1.30808 2.9109 7.98812 1.731 6.07757 4.97158 3.35292 3.36055 6.23719 4.71018 1.20636 0.233792 2.09416 2.55395 5.53846 4.59253 5.47846 0.559179 5.57831 2.87771 0.669673 1.02302 2.75736 2.21809 4.25155 1.22768 7.5644 5.29993 1.36234 7.0541 3.56775 2.2544 2.62301 7.85824 0.803228 1.91031 6.59425 6.27387 4.33265 0.546444 7.77195 0.998724 0.433217 7.10317 1.61497 0.620816 0.131053 5.98404 5.13394 0.897186 6.07787 4.34119 1.76723 5.80585 1.99831 6.74837 5.09457 3.5743 2.48967 1.15069 5.733 1.19317 3.96387 7.31516 1.99329 6.73661 2.47806 0.998724 1.93878 4.77233 0.424887 6.91924 2.49153 3.97209 1.39918 1.90779 2.82714 3.02367 6.41648 0.375093 3.34069 6.98546 0.259042 6.53485 0.571703 4.76965 0.723174 3.7096 6.41302 1.95135 2.91834 6.79131 0.444936 1.88423 7.026 2.08064 0.546444 3.39466 3.51831 0.440611 7.7022 2.56846 4.00299 0.78823 0.575449 0.69069 2.63688 1.36234 5.08744 0.534269 4.91337 3.7096 1.50927 2.87771 0.658723 3.64978 3.07096 5.5782 2.10865 2.28789 0.537471 2.91834 1.483 0.87182 3.09795 3.84305 6.24407 2.33554 5.25444 0.17506 2.34911 1.99019 0.81401 2.14279 2.80161 1.44345 5.15307 6.61596 4.76605 3.82992 1.68354 0.719076 3.35395 6.08863 3.93731 0.599913 3.74722 2.32587 0.58126 2.45386 1.04192 6.32373 4.70066 3.53395 1.70022 3.38368 3.18559 5.02894 4.45948 3.9825 5.88526 2.08538 1.15878 3.28122 5.42207 1.91368 2.47933 0.961183 2.17475 3.36304 1.85522 5.97392 0.795653 2.82818 2.32931 6.6855 3.61351 1.19333 4.1284 1.39627 0.789018 0.404246 8.42571 9.74105 0.837299 4.03243 1.64358 5.7798 2.07869 3.07096 2.35271 2.56846 4.27185 2.32587 1.89837 2.29842 6.01067 6.542 0.861294 2.93497 1.50266 7.45978 1.24794 8.35997 3.06191 0.47274 1.80054 4.34964 6.65486 6.77501 1.44827 0.803228 3.77603 0.362216 1.03489 0.385728 7.43872 1.17803 1.97374 0.754331 7.91164 3.56354 2.48488 6.91308 0.290709 4.55877 0.507696 0.870131 4.02994 6.30644 2.86698 3.57617 3.74806 1.64675 0.991126 3.02367 1.42672 5.46027 5.09896 1.11766 6.107 2.68977 1.42628 1.50828 9.85632 4.96372 4.6106 2.41975 2.4123 1.11342 0.416179 0.553704 0.719231 6.76636 1.00802 1.64955 2.53721 5.73314 0.81913 4.0441 7.11696 0.461302 0.498554 4.27902 0.778971 0.442224 3.60672 0.471722 6.59819 8.1584 5.04127 0.436058 3.66307 1.01973 1.95576 1.53222 3.80645 3.63443 1.80179 6.23174 0.474763 3.56775 0.567517 2.54082 2.24776 0.354336 2.41644 6.79706 1.33774 2.69829 1.377 4.16138 1.16765 5.75427 3.39738 1.17465 6.45953 3.19915 6.52403 0.346826 0.864115 5.43958 1.19333 0.626221 7.80621 0.424079 3.34069 9.48267 3.97209 0.655198 3.36857 4.77372 0.914904 5.3978 0.535912 4.86056 4.21037 4.01921 3.10025 1.85522 6.60774 2.10524 3.53395 3.71056 0.444936 0.582454 0.468015 7.28726 3.99341 8.23006 1.24038 1.56004 3.84061 6.82467 3.51726 1.31547 1.96848 4.04418 2.88946 5.16375 4.64486 3.44269 6.59425 1.11991 5.64072 1.99329 0.705716 2.47152 1.99831 7.73339 0.784873 0.875717 0.627045 0.773834 6.05303 0.850388 0.925133 0.695262 6.24163 0.849127 3.9238 8.34209 5.66592 2.64445 2.32534 1.24989 0.44357 8.1087 0.304144 5.09896 0.496104 4.45948 1.35465 2.51106 3.28122 0.951173 0.496104 5.46027 1.79729 1.95756 1.3547 2.69297 3.9825 0.658723 5.57831 0.765711 3.9592 0.502377 7.87817 2.01784 7.6047 2.96476 2.77151 5.51774 2.51106 4.42366 1.60162 2.56428 5.42207 1.95003 4.16583 1.44996 1.11991 1.91031 1.44827 0.751319 4.03378 1.11342 7.12301 4.02863 2.18137 6.46529 3.28208 1.16765 1.46215 1.91588 0.212897 2.99819 0.950293 7.41632 5.10639 4.31386 1.61963 1.37241 2.00106 4.65462 1.40975 0.120729 7.89012 2.98559 1.86077 7.60374 1.39918 5.3978 4.86744 0.509348 3.70846 4.68815 4.17049 0.556162 1.60919 1.4286 3.06954 1.83864 5.97413 1.30023 8.1087 3.86761 3.99558 3.27104 0.165134 4.41002 1.80918 2.32931 2.40395 7.37904 1.80054 3.01624 4.27364 4.14229 8.19538 4.60356 1.17968 1.04681 4.86089 0.49956 4.50461 0.961183 1.38077 4.18484 4.94851 0.326425 0.754331 1.01677 10.1338 4.77477 0.442224 3.4472 3.69336 7.9463 2.80161 2.19009 0.323811 2.9109 1.83555 0.703604 5.40194 0.742601 7.69515 1.06477 2.29842 3.89284 5.97917 4.34882 1.19177 1.06894 4.23312 6.23174 1.84014 3.18695 2.72791 2.50938 2.3059 0.751319 6.77501 2.87288 6.01067 1.06477 2.3272 5.17603 2.33554 0.964698 0.742601 2.90461 4.39207 0.325885 5.65866 3.6993 1.26716 5.45853 0.608165 0.81913 7.47919 0.582454 6.79131 0.537471 4.97409 5.97392 3.5654 6.23182 0.416702 1.36283 5.46864 2.04424 0.548739 4.71363 4.10424 2.8355 0.963172 6.32664 5.00651 0.471462 0.120729 4.70672 3.90699 5.56601 1.44345 5.40194 4.36429 1.96848 3.65007 4.54007 5.59518 0.81401 7.45991 0.369183 0.457088 1.02302 1.01793 2.41004 4.24476 0.915958 1.60105 6.32866 0.340739 1.17968 3.94046 0.535673 0.770294 3.14551 0.771971 8.35997 3.41732 2.14556 4.10738 3.15106 0.69069 6.48005 5.0633 2.22999 7.026 2.00868 0.14573 0.589599 2.88946 0.164381 1.69682 7.0382 7.28695 5.37649 0.750508 3.53073 0.393035 5.51517 0.498554 8.02612 0.275356 6.95932 1.28712 2.13602 1.99343 2.20236 5.09457 0.477996 3.00294 1.11054 5.37649 0.721652 2.18568 8.82304 5.88273 6.05303 4.11547 9.15736 1.55359 5.13394 1.83937 2.83362 5.96703 0.82327 10.1595 1.42934 5.27981 3.39738 1.03221 0.997448 2.39901 2.39751 5.16375 0.589599 8.96416 4.14229 4.30369 5.19173 2.11386 1.47496 3.08214 5.91766 2.02277 1.04913 0.788947 4.11754 1.56387 1.90779 4.68815 2.68824 0.433217 1.55359 0.754144 5.58667 1.36283 0.893004 6.07787 0.246617 4.84626 4.97202 1.50445 2.02546 1.77491 2.11386 1.53314 1.05522 7.04287 4.99072 6.70752 4.20036 0.896911 2.26806 0.440611 1.04001 5.23953 4.76456 1.63487 1.18822 4.31313 0.165134 0.986031 7.41632 2.88484 2.23619 4.53429 1.46785 0.369692 1.20636 4.7204 2.00672 2.37124 0.417161 0.961431 10.3428 3.52858 6.53399 0.869337 0.627045 0.32114 3.35292 3.65171 1.20087 9.48267 0.375093 1.95633 6.92986 0.299463 1.91501 0.686253 5.03572 0.564101 2.99819 4.41942 5.07799 1.3184 4.77322 0.194819 0.541258 5.81994 4.75173 2.30645 0.290709 0.377745 1.99552 1.40975 3.18644 3.08214 0.777789 6.82467 2.98481 0.282723 4.91291 2.65491 6.52403 0.770294 10.9153 0.873273 3.58223 7.6144 1.12424 4.65517 4.50461 2.51409 1.56454 2.83362 0.540521 3.38922 1.06797 6.95195 1.60919 6.18847 1.36712 3.11494 3.90805 4.7116 0.482566 5.77871 7.22384 6.69394 4.39207 0.682461 0.465117 0.393035 8.34976 0.606982 2.0463 2.32391 0.278689 3.74806 0.484323 4.78421 4.45252 2.2156 6.19862 3.7555 3.68634 2.65117 2.1434 0.238054 7.90288 3.2864 1.76723 4.61962 4.82027 0.535912 2.69099 0.468015 1.1116 4.49717 0.553704 6.34838 8.21032 0.671198 5.0619 0.427706 3.69516 1.62049 2.70426 6.70752 1.9035 6.20161 0.490126 2.14556 1.46264 5.78022 1.61497 2.75105 5.68446 0.59118 3.73081 0.466479 4.02994 0.278689 2.34911 5.89543 3.72978 2.08597 8.78217 0.658105 9.15736 1.234 6.27387 2.47806 0.279575 0.868285 1.62159 8.90905 2.1434 0.288628 7.01835 1.77798 2.75736 6.32866 4.92577 2.18137 1.12347 2.82818 5.11083 1.17364 1.86077 1.83526 0.82327 1.02087 2.40395 5.52587 1.12441 0.299463 7.15853 0.385728 4.91149 2.69099 3.10025 3.11128 0.682859 1.93992 7.28726 2.82714 5.58667 4.97786 0.579633 2.88982 0.33498 2.63726 1.1406 3.28847 2.12379 2.0928 7.89735 0.731139 5.752 6.18753 0.772923 1.91876 3.53991 0.507696 7.00167 1.56004 4.36429 0.703604 4.79151 1.91467 0.536763 3.69336 6.66392 7.3675 0.997448 2.31278 1.60909 2.08322 5.11229 6.53485 2.16025 8.21032 1.06286 0.915958 1.79142 6.542 0.742233 0.901387 0.78823 5.73476 5.0633 1.36612 6.15675 0.323811 1.14071 1.69598 4.15247 0.728802 2.75432 7.98812 2.34275 3.86761 0.44357 3.20577 7.51239 0.964698 6.24407 2.81167 1.14555 2.3272 7.69515 4.55877 2.30645 3.84061 7.00167 3.9592 6.82055 0.949986 3.52858 2.11432 3.06938 5.52075 2.3098 6.32373 1.03893 3.83629 0.677347 1.17364 4.02633 2.10865 1.72809 4.70672 7.60374 0.333539 7.40545 4.1789 3.66307 4.81358 6.61596 0.722563 5.32736 2.90647 4.41002 1.46785 4.62224 2.63688 3.15106 3.91759 3.6998 0.567517 7.0541 1.83526 2.98559 3.92386 2.93497 0.753524 10.1595 0.349286 9.66403 0.91977 5.78275 1.77684 2.9463 0.615216 8.54242 0.872803 1.13214 8.42571 2.34581 0.526718 7.44617 3.47831 8.62608 2.32185 5.27981 5.92825 1.41707 3.54034 1.17465 3.53073 0.454147 5.56601 0.951297 8.34976 3.36304 1.80918 2.90647 1.62029 6.60774 2.14296 0.921116 1.84233 1.50828 1.09864 5.52075 5.16435 0.620816 5.78022 4.67925 10.8277 5.40963 6.58757 3.00294 2.531 2.00903 3.23837 1.49912 4.77621 1.37241 0.354442 10.4889 5.44327 5.55403 2.0126 5.10639 1.99552 5.91716 7.5644 3.16953 1.13054 1.43389 1.25629 0.8087 8.62608 1.14412 2.2274 0.721656 10.7953 6.46529 4.92577 1.60105 1.06286 6.34838 0.416179 4.34119 0.893004 0.416702 3.74935 2.03186 0.921116 1.5458 4.61962 1.56851 5.15307 3.65007 1.31547 2.85781 1.33774 2.39901 7.3675 1.19442 1.12272 4.91291 3.89426 1.89837 4.70066 2.3098 1.09864 1.42628 1.36496 3.89284 4.49717 4.31138 4.80536 2.92481 4.96372 3.68634 3.24916 3.38017 2.48488 4.66937 0.949986 2.59776 1.04001 3.51831 2.70919 6.53399 6.21882 2.57974 2.50938 6.30227 1.77798 5.83889 0.691313 1.731 2.75432 1.54885 2.83326 1.35807 3.89353 2.03932 2.5458 3.3663 0.722563 5.54244 2.91977 4.64486 2.39751 3.89426 0.282723 2.27085 2.07869 3.24793 0.606982 0.951297 3.90699 1.72809 5.5782 3.28847 3.27886 2.02153 3.15354 1.12082 5.80231 1.87477 4.47017 2.01383 2.08597 1.26908 6.1403 1.59174 7.47919 5.73314 0.436445 3.89057 1.234 4.11547 0.773834 0.869337 2.70919 3.39466 4.33265 5.64072 1.44996 7.61905 0.279575 6.73661 0.442652 3.9238 5.32943 3.94046 4.60356 4.65517 0.432745 3.8733 5.26662 1.50445 1.84906 2.96476 2.1267 2.79198 2.63633 6.49576 3.0544 3.8738 3.58223 0.668306 5.51774 5.55285 3.01421 5.5311 0.615216 1.0676 7.6144 3.8738 1.18734 8.10907 5.88192 4.75173 2.22636 2.75105 2.32391 5.72301 8.02612 0.461302 0.554285 2.9463 0.728094 0.233792 0.369692 1.06003 3.40621 1.92132 0.969647 0.220975 0.979722 1.78018 6.44623 1.91368 2.56428 0.43034 3.35395 2.04714 6.047 2.17475 10.1338 9.15158 0.951173 0.767389 1.94887 2.33707 3.36857 2.6707 0.296785 7.62715 2.65814 7.7022 2.26806 1.39381 4.87549 2.12915 6.55671 1.78733 1.02312 8.67819 1.44003 2.25847 5.97413 0.227498 2.04714 3.74722 3.41422 1.06894 7.15853 6.92986 1.16337 7.43872 4.28403 3.67169 2.13602 1.51011 4.76456 3.45618 2.64445 2.25846 5.57087 5.39182 0.742233 7.45978 3.52981 2.82904 5.69402 3.5264 9.85632 1.84233 2.03186 3.46356 5.27289 0.509348 0.539146 2.19661 4.2821 6.20161 1.06003 10.3428 2.76171 6.21882 1.46043 5.38972 1.04681 0.340739 1.24794 5.21222 2.02546 5.26662 0.745565 5.51306 0.879599 1.93878 7.77195 2.08064 2.65814 0.265682 7.8241 4.18484 1.21441 5.53446 4.48491 3.62507 0.738718 4.56056 3.43189 2.73857 5.55403 0.603736 3.86094 2.50956 3.99341 1.93992 10.0515 0.68287 6.20624 0.695262 0.960186 1.39627 4.37932 0.729577 0.894654 0.668306 0.873273 4.08075 5.90903 2.97753 2.75445 2.44005 4.2821 5.89204 3.91759 4.10738 0.490126 5.09496 2.5458 4.05287 8.52725 1.57176 8.37308 5.52587 4.3191 2.01453 0.246617 0.897186 2.55227 4.99686 4.56581 5.4972 1.03893 1.04192 2.22636 5.81994 5.32058 5.68446 1.51011 1.28712 5.75331 2.00672 6.87627 1.63487 0.535943 9.26974 1.23765 2.45087 8.23006 2.50956 0.530172 6.19862 3.61865 0.548739 4.85498 2.16557 3.13017 5.15966 1.78018 1.99748 9.66403 2.07242 7.34836 1.69598 1.24235 3.35701 3.20577 1.24989 1.19317 3.0769 3.82992 2.31535 2.47152 6.90501 0.925133 9.10916 1.42316 2.12265 0.275356 6.74837 1.77247 3.96387 6.90501 0.705716 4.77233 0.879599 0.693375 9.83649 0.336197 2.35705 0.265682 1.09899 1.06797 5.27231 3.65663 1.12099 0.605256 2.27085 2.98481 3.19915 3.61351 0.30699 9.59796 0.905659 1.26908 3.72978 4.33521 2.41644 1.12424 8.10907 2.32873 1.16733 4.7524 3.14551 0.73943 4.84626 2.01453 1.31673 3.89057 4.78401 0.914904 5.0274 2.24776 5.60927 0.539146 4.86744 3.77143 3.27104 4.01461 0.69881 6.91924 3.57617 6.11067 4.27902 5.51517 0.484323 4.6791 1.65375 6.48005 0.575449 6.15675 2.68824 3.70846 5.27289 1.9035 7.10317 1.04913 5.70103 1.49912 3.49253 2.04424 1.19742 0.407124 3.52928 0.839749 9.53513 1.39381 0.896911 3.96234 4.08075 2.98168 0.970069 10.9085 1.3547 0.579981 4.28403 5.23953 1.72724 3.83629 5.4972 0.816313 1.60909 6.76455 5.53446 3.37902 3.06954 5.53249 1.19087 6.35618 3.25461 5.43017 0.346826 2.65491 1.12272 1.57176 5.80585 3.2864 1.24038 2.45087 3.90716 2.29436 8.14799 2.69066 4.59253 1.50927 0.723174 0.527728 4.34964 8.19538 1.47496 1.77491 5.21222 0.466479 4.58753 4.42366 1.35465 1.15878 2.70204 6.30644 1.45552 7.89735 1.47319 7.80621 2.00964 1.84906 7.04287 1.11229 5.55285 2.77151 0.33498 9.25553 0.459745 2.25846 5.66592 1.30023 3.77143 0.424887 0.859732 1.64358 5.08744 5.29993 0.251581 4.77322 0.578952 7.9999 1.44003 1.19177 6.43339 0.767389 2.69654 0.772923 1.53572 6.09688 1.01793 0.669673 5.91716 2.96051 1.12099 1.47845 4.67925 1.46264 3.41732 1.65375 5.57105 2.35869 8.82304 0.290598 2.57711 1.84014 6.65486 5.03051 5.27231 3.38922 0.379949 5.752 2.09319 1.18638 0.750359 5.34528 1.69682 1.11054 6.58757 3.06406 0.196119 0.30699 4.16138 4.50468 0.298356 6.76636 0.986031 7.37904 1.02087 1.03221 5.75427 3.28208 1.83555 6.07757 0.691313 2.73721 3.52776 0.870131 4.79151 2.12379 5.80231 2.91638 3.39175 4.84129 0.979274 10.4889 3.14661 4.10053 7.22384 0.859732 1.3184 5.88192 2.0463 3.24793 5.7798 1.75728 10.6071 0.729577 1.27796 8.59277 5.45853 2.07938 4.44217 4.61954 4.00299 2.35271 1.483 1.95135 2.22999 5.73476 1.78733 3.05287 3.11128 4.01921 0.155607 7.26605 3.38017 0.856601 0.968512 3.62507 5.44327 0.377745 6.91308 2.02277 4.10218 2.00106 4.77621 5.70103 1.15955 5.14301 1.45454 1.54885 0.728802 3.68394 5.47375 4.48491 5.53249 1.4286 6.95195 1.09899 3.3192 10.7953 0.795918 0.721652 7.28695 2.756 4.3191 4.91149 1.03489 1.19332 3.6993 1.59174 1.31673 0.599913 7.58966 0.194819 0.251581 2.2544 0.474763 4.23312 3.41422 0.417161 2.53193 1.42316 2.00394 4.6728 1.95003 4.84837 3.0414 6.56692 5.77368 0.894009 3.90805 2.3515 6.23719 2.57908 4.14276 0.480123 0.603736 0.988494 1.01332 5.03462 0.873927 2.77284 2.21809 1.12347 4.02863 2.65117 4.66937 3.56354 3.52776 2.53932 0.288628 1.377 7.03524 6.13383 4.50468 0.413917 4.16813 4.44217 3.00736 9.83649 3.97479 3.46356 3.74935 6.23182 4.82027 1.5458 2.14296 3.78808 4.86056 1.99019 8.78217 2.01383 2.34736 7.45991 0.571703 5.11229 4.71157 1.52653 6.8704 2.96051 1.43389 4.96216 4.41942 0.212897 7.30254 1.00802 0.298356 6.13383 0.69011 4.11754 7.11366 3.64978 7.87817 1.5241 7.1049 0.969647 8.05875 0.290598 2.18568 0.795918 0.721656 8.56347 1.68354 3.0769 5.733 0.446246 0.839749 0.649186 0.125581 1.07397 9.71535 1.05708 4.80536 1.27317 0.91977 1.99748 0.979722 7.79046 1.31371 0.745789 6.14411 2.63633 0.894654 10.6071 2.48967 2.11801 7.04146 7.73339 1.77281 5.11579 2.55227 2.45386 7.98133 2.73795 1.