<VTKFile type="UnstructuredGrid" version="0.1">
<UnstructuredGrid>
<Piece  NumberOfPoints="    2500" NumberOfCells="     419">
<Points>
<DataArray type="Float64" NumberOfComponents="3" format="ascii">
-15.9814 -58.1145 0.0
-13.9448 -60.4065 0.0
-10.8147 -54.7542 0.0
-11.0336 -53.2051 0.0
-11.9807 -53.0012 0.0
-13.0609 -53.0026 0.0
-15.3522 -54.2679 0.0
-15.9807 -56.4051 0.0
18.6994 17.7446 0.0
20.9568 14.5246 0.0
21.5755 14.5802 0.0
26.6415 16.0117 0.0
27.0295 17.1368 0.0
38.4366 -27.6965 0.0
35.4518 -29.4273 0.0
40.8016 -32.1242 0.0
41.6209 -32.0792 0.0
42.5715 -31.7092 0.0
41.6903 -26.573 0.0
-3.18404 26.8199 0.0
-5.38968 25.1318 0.0
-8.23758 22.5199 0.0
-7.89371 19.3019 0.0
-2.00714 22.0793 0.0
-1.69663 22.3655 0.0
-0.316527 23.8435 0.0
-1.01744 24.9282 0.0
-23.1724 -31.8462 0.0
-22.7872 -29.402 0.0
-22.862 -28.6398 0.0
-23.5672 -27.8257 0.0
-27.1144 -27.309 0.0
-27.352 -28.2432 0.0
-27.9894 -32.835 0.0
19.1339 -30.1506 0.0
18.4019 -29.7951 0.0
7.4946 -32.3201 0.0
8.1007 -32.9963 0.0
10.7548 -34.7453 0.0
13.9709 -33.2462 0.0
-49.329 -16.3538 0.0
-48.9326 -16.2416 0.0
-49.0554 -11.0566 0.0
-50.2002 -8.54796 0.0
-50.8289 -7.26534 0.0
-52.8411 -9.61209 0.0
22.7921 -25.7166 0.0
21.1193 -23.1449 0.0
16.9155 -25.8544 0.0
17.0556 -27.6121 0.0
19.1023 -29.2191 0.0
19.8343 -29.5746 0.0
20.3849 -29.6219 0.0
44.2046 7.03045 0.0
44.1994 6.68377 0.0
49.9498 9.59498 0.0
49.9275 13.1618 0.0
49.5827 13.1744 0.0
46.4499 12.9872 0.0
-38.4189 3.82162 0.0
-37.9375 5.19239 0.0
-38.6537 6.97311 0.0
-40.5292 7.60402 0.0
-42.3114 7.97608 0.0
-42.743 7.50094 0.0
-43.3214 3.07785 0.0
4.02541 22.2332 0.0
5.14127 21.0111 0.0
11.7778 19.7712 0.0
12.2922 22.1358 0.0
11.2262 22.8809 0.0
4.13669 23.1886 0.0
-0.0626008 -20.9399 0.0
-0.121168 -22.1613 0.0
-0.0595272 -25.795 0.0
0.591891 -25.977 0.0
5.7623 -24.2764 0.0
6.28712 -22.7826 0.0
30.1841 36.0904 0.0
29.4171 37.7045 0.0
28.6535 39.1894 0.0
21.9609 43.2305 0.0
21.783 42.9569 0.0
21.9636 41.6726 0.0
29.7911 35.2531 0.0
-16.8305 -19.8737 0.0
-14.7057 -20.3124 0.0
-12.7427 -15.9652 0.0
-16.9809 -14.8384 0.0
-18.3987 -18.6051 0.0
50.361 -3.54887 0.0
49.6831 -6.12697 0.0
54.0797 -7.93129 0.0
54.5741 -7.41727 0.0
56.0441 -5.07646 0.0
55.5315 -4.2091 0.0
-34.1089 -3.74285 0.0
-34.1123 -3.77166 0.0
-33.5238 -6.12488 0.0
-28.6032 -10.4202 0.0
-28.0395 -10.2561 0.0
-27.2131 -8.45448 0.0
-27.3123 -7.73357 0.0
49.9359 -22.1369 0.0
46.7463 -22.919 0.0
46.2566 -30.0809 0.0
50.4255 -27.0385 0.0
50.1915 -22.6416 0.0
22.6382 8.52269 0.0
21.0361 7.84267 0.0
21.6991 5.34505 0.0
22.3725 4.95696 0.0
30.405 5.40951 0.0
30.3383 5.70191 0.0
54.1318 -8.62659 0.0
51.3778 -11.7299 0.0
50.9615 -14.7831 0.0
51.941 -16.4637 0.0
55.9532 -12.7975 0.0
54.6262 -8.11257 0.0
42.3451 -13.2844 0.0
42.1935 -14.134 0.0
49.6311 -15.1548 0.0
50.3425 -14.8668 0.0
50.7588 -11.8135 0.0
47.8044 -11.2916 0.0
45.5124 -12.1479 0.0
-48.073 -3.66375 0.0
-48.3179 0.534258 0.0
-52.3342 -0.237158 0.0
-51.9957 -3.45848 0.0
-50.7925 -4.52895 0.0
-32.3945 24.7998 0.0
-31.9828 23.0973 0.0
-28.5893 23.2939 0.0
-27.178 27.0372 0.0
-27.4789 27.9106 0.0
-32.7042 26.2032 0.0
55.761 17.348 0.0
52.2008 14.626 0.0
55.3397 11.1704 0.0
57.293 12.6812 0.0
56.5761 15.8979 0.0
-17.024 7.30669 0.0
-14.5814 10.1326 0.0
-15.1026 12.911 0.0
-15.796 13.4529 0.0
-20.6095 12.0876 0.0
-39.1895 42.1737 0.0
-38.4986 41.601 0.0
-32.3384 47.5783 0.0
-31.9877 48.3038 0.0
-33.2946 49.5416 0.0
-36.7422 47.8262 0.0
-29.8686 -51.0495 0.0
-28.9955 -50.6955 0.0
-29.575 -43.1056 0.0
-30.2139 -42.3439 0.0
-32.5206 -48.0691 0.0
-32.0025 -49.1365 0.0
-1.25835 -55.2315 0.0
0.0325571 -55.3278 0.0
0.400928 -46.2561 0.0
0.14269 -46.0773 0.0
-3.67358 -47.708 0.0
-14.9096 60.7363 0.0
-16.2804 60.7255 0.0
-18.3757 53.2094 0.0
-18.182 52.1361 0.0
-17.255 52.2177 0.0
-15.3783 52.6467 0.0
-13.1974 59.1782 0.0
-14.0912 60.2703 0.0
-55.8817 17.6336 0.0
-59.0653 18.204 0.0
-60.6065 16.4621 0.0
-60.1756 12.9552 0.0
-55.136 12.4642 0.0
-35.0065 -36.4963 0.0
-32.9592 -38.9795 0.0
-30.3578 -39.8378 0.0
-28.3477 -38.1034 0.0
-29.4225 -35.2394 0.0
-30.2814 -34.4965 0.0
-31.0969 -34.3312 0.0
11.6063 -51.8889 0.0
13.5808 -46.8136 0.0
13.3692 -46.2683 0.0
8.39265 -46.9204 0.0
6.04429 -48.0147 0.0
2.15204 58.4782 0.0
0.43823 55.7432 0.0
4.17506 54.5741 0.0
8.07145 56.9356 0.0
4.75411 59.4697 0.0
12.3595 31.1866 0.0
15.1138 29.0188 0.0
15.674 35.0759 0.0
13.2426 35.3556 0.0
12.7707 35.2722 0.0
12.0404 33.6299 0.0
9.05545 55.9493 0.0
7.96709 56.4054 0.0
4.0707 54.044 0.0
-1.96298 49.3604 0.0
0.0128231 47.2301 0.0
0.326883 47.1148 0.0
14.1889 -18.6539 0.0
15.0831 -19.3676 0.0
26.943 -15.0012 0.0
27.0616 -14.3037 0.0
26.6264 -13.8783 0.0
16.0455 -17.3557 0.0
-52.4399 10.1005 0.0
-55.0848 11.9665 0.0
-60.1243 12.4575 0.0
-60.6028 10.873 0.0
-59.8796 7.36204 0.0
-4.42923 50.6214 0.0
-4.22424 50.6086 0.0
-0.149061 55.6054 0.0
1.56475 58.3403 0.0
0.799344 58.4851 0.0
-2.68656 58.0235 0.0
-38.2689 -22.0809 0.0
-39.4866 -20.4512 0.0
-45.2788 -20.8069 0.0
-42.2753 -24.5877 0.0
-33.7544 39.475 0.0
-34.7987 39.0969 0.0
-34.8042 29.7847 0.0
-34.1823 28.731 0.0
-33.4692 28.4187 0.0
-32.332 30.3114 0.0
-32.5152 35.5767 0.0
-32.8151 39.0578 0.0
-32.8988 39.1203 0.0
14.0374 48.6618 0.0
16.8283 49.5755 0.0
15.6436 56.2002 0.0
12.7424 55.4645 0.0
11.9968 53.3189 0.0
-11.5683 -43.5626 0.0
-14.8892 -44.4794 0.0
-15.247 -44.6329 0.0
-15.0725 -45.7808 0.0
-13.0073 -52.1243 0.0
-11.927 -52.1229 0.0
6.14286 61.6077 0.0
5.31986 59.6188 0.0
8.63721 57.0847 0.0
9.72557 56.6287 0.0
12.2691 56.058 0.0
15.1703 56.7937 0.0
15.4534 56.9646 0.0
40.0271 17.1088 0.0
41.7004 11.2243 0.0
43.7785 7.24014 0.0
46.0238 13.1969 0.0
45.9661 13.3428 0.0
-26.1568 -20.4525 0.0
-28.2753 -18.1346 0.0
-31.4137 -16.5912 0.0
-32.5682 -23.2791 0.0
-30.6113 -24.0449 0.0
11.5049 52.9901 0.0
3.55541 47.6052 0.0
12.0882 46.8856 0.0
13.5455 48.333 0.0
31.4526 3.91588 0.0
30.1368 2.33816 0.0
26.9095 -5.99564 0.0
30.7936 -3.90115 0.0
32.3788 3.52744 0.0
15.4974 -17.185 0.0
19.6874 -12.9098 0.0
16.5034 -11.7281 0.0
13.008 -13.5349 0.0
11.9042 -14.4003 0.0
11.9174 -14.7949 0.0
12.0449 -18.3277 0.0
13.6408 -18.4832 0.0
38.3914 7.9985 0.0
38.1601 4.98746 0.0
39.2772 3.95197 0.0
40.3361 3.72037 0.0
43.3261 5.19715 0.0
43.5362 6.32435 0.0
43.5414 6.67102 0.0
41.4633 10.6552 0.0
-7.4094 -60.8831 0.0
-5.12252 -60.0247 0.0
-2.18157 -56.1205 0.0
-5.88275 -54.387 0.0
25.5168 -24.2196 0.0
23.2127 -25.8567 0.0
20.8055 -29.7619 0.0
21.5065 -30.4603 0.0
24.4238 -30.3896 0.0
26.8551 -27.8534 0.0
44.3679 20.708 0.0
45.063 18.7725 0.0
46.3869 15.1203 0.0
52.1171 21.3251 0.0
-43.0556 11.2469 0.0
-44.0893 11.9117 0.0
-49.5325 8.40478 0.0
-43.1855 7.90812 0.0
-42.754 8.38326 0.0
-21.1746 37.3497 0.0
-21.3147 36.7847 0.0
-21.1201 36.5089 0.0
-18.3141 36.1158 0.0
-17.4743 37.1056 0.0
-16.0064 40.3435 0.0
-14.1513 44.8678 0.0
0.37154 -55.3971 0.0
0.825763 -55.5538 0.0
2.6629 -55.065 0.0
4.13714 -53.4134 0.0
4.08628 -48.2535 0.0
3.28476 -47.007 0.0
0.739912 -46.3254 0.0
-40.2976 33.1076 0.0
-38.4581 33.537 0.0
-37.824 39.3705 0.0
-38.8962 40.752 0.0
-39.5871 41.3247 0.0
-41.7765 41.0312 0.0
0.226939 23.6237 0.0
-1.15316 22.1457 0.0
0.0373301 16.0698 0.0
0.0934871 16.081 0.0
3.27494 22.1517 0.0
3.38622 23.1071 0.0
3.31892 23.2121 0.0
2.70925 23.7164 0.0
29.5554 31.2566 0.0
29.188 30.4383 0.0
34.6807 24.6472 0.0
35.7888 24.365 0.0
35.5058 25.4187 0.0
32.651 30.9506 0.0
30.7855 32.1067 0.0
49.6976 1.37495 0.0
51.3166 2.53574 0.0
57.57 11.1225 0.0
57.0561 11.9074 0.0
55.1028 10.3965 0.0
51.2194 7.25818 0.0
48.7864 2.93251 0.0
9.83243 -10.4283 0.0
11.0505 -13.5061 0.0
11.6379 -13.9728 0.0
12.7417 -13.1074 0.0
15.4951 -6.91448 0.0
33.9705 -4.80762 0.0
34.4217 -3.86528 0.0
34.3616 4.11341 0.0
32.6901 3.56834 0.0
31.105 -3.86025 0.0
50.4888 -15.3187 0.0
49.7774 -15.6068 0.0
43.6467 -18.5454 0.0
50.8789 -19.7746 0.0
51.0316 -19.5913 0.0
51.4684 -16.9993 0.0
23.9037 -40.0537 0.0
23.7392 -39.1349 0.0
19.5641 -36.2661 0.0
18.6046 -36.6593 0.0
14.3492 -39.1594 0.0
15.2375 -40.9735 0.0
-9.99237 -22.2916 0.0
-9.93329 -23.259 0.0
-2.23288 -28.2528 0.0
-1.66819 -26.4407 0.0
-7.63243 -21.5671 0.0
-8.42618 -20.9042 0.0
-15.3269 23.8764 0.0
-16.9884 20.4643 0.0
-16.8092 20.1922 0.0
-15.5609 18.9018 0.0
-12.9848 21.0921 0.0
-10.6297 25.8736 0.0
-14.7638 24.6288 0.0
51.9053 14.3171 0.0
50.4037 13.2364 0.0
50.4259 9.6695 0.0
51.1608 7.72314 0.0
55.0441 10.8615 0.0
-47.6017 -3.55805 0.0
-43.1193 -4.26687 0.0
-42.1647 -2.26692 0.0
-44.0078 1.66272 0.0
-47.9876 3.26225 0.0
-47.8466 0.639953 0.0
-1.61134 -4.646 0.0
-1.42419 -4.56167 0.0
-3.368 0.170602 0.0
-5.5249 5.48269 0.0
-7.09038 5.44009 0.0
-7.60243 3.46073 0.0
-8.21887 0.120671 0.0
33.5786 16.8742 0.0
34.3384 14.943 0.0
37.4549 13.4887 0.0
38.0518 19.967 0.0
37.6107 22.1756 0.0
36.7381 22.4163 0.0
33.5394 19.4244 0.0
33.2425 19.0147 0.0
-9.85917 -23.6261 0.0
-9.88523 -23.9679 0.0
-4.12193 -31.3025 0.0
-2.83782 -32.0102 0.0
-2.15877 -28.6199 0.0
-25.5289 9.25575 0.0
-25.5004 6.85958 0.0
-20.639 1.95602 0.0
-18.7593 3.79935 0.0
-18.8326 4.60933 0.0
-24.6342 9.92192 0.0
-22.9327 -35.1003 0.0
-23.2193 -32.3611 0.0
-28.0363 -33.3499 0.0
-28.8755 -35.0479 0.0
-27.8007 -37.9119 0.0
-26.0033 -38.3281 0.0
-23.2245 -35.4391 0.0
-31.7516 52.7903 0.0
-32.5953 50.0512 0.0
-31.2885 48.8134 0.0
-27.65 48.4609 0.0
-27.1199 48.4705 0.0
-25.1345 50.476 0.0
-26.0838 54.3215 0.0
-25.9267 -0.0325997 0.0
-26.8418 2.68845 0.0
-31.0218 3.85518 0.0
-32.2427 4.1802 0.0
-32.7354 3.51424 0.0
-32.6122 1.35601 0.0
-18.0221 -26.1239 0.0
-17.1816 -20.3131 0.0
-18.7498 -19.0445 0.0
-20.0061 -19.2162 0.0
-22.0429 -21.337 0.0
12.7622 35.9879 0.0
13.2341 36.0713 0.0
17.7801 42.4805 0.0
16.0369 42.819 0.0
12.3831 41.9261 0.0
10.787 38.168 0.0
-14.2684 -20.4637 0.0
-10.5278 -21.7518 0.0
-8.9616 -20.3644 0.0
-8.58907 -19.2104 0.0
-10.5386 -16.3063 0.0
-12.3054 -16.1165 0.0
-24.6603 -48.4937 0.0
-24.4367 -48.5408 0.0
-25.642 -39.7568 0.0
-26.1122 -39.0726 0.0
-27.9096 -38.6564 0.0
-29.9198 -40.3908 0.0
-29.9074 -41.6909 0.0
-29.8649 -41.8854 0.0
-29.226 -42.6472 0.0
7.7116 -21.4926 0.0
[...]
<CellData Scalars="cell variable 4" Vectors="cell vector">
<DataArray type="Float64" NumberOfComponents="3" Name="cell vector" format="ascii">
0 0 0
0 0 0
0 0 0
0 0 0
0 0 0
0 0 0
0 0 0
0 0 0
0 0 0
0 0 0
0 0 0
0 0 0
0 0 0
0 0 0
0 0 0
0 0 0
0 0 0
0 0 0
0 0 0
0 0 0
0 0 0
0 0 0
0 0 0
0 0 0
0 0 0
0 0 0
0 0 0
0 0 0
0 0 0
0 0 0
0 0 0
0 0 0
0 0 0
0 0 0
0 0 0
0 0 0
0 0 0
0 0 0
0 0 0
0 0 0
0 0 0
0 0 0
0 0 0
0 0 0
0 0 0
0 0 0
0 0 0
0 0 0
0 0 0
0 0 0
0 0 0
0 0 0
0 0 0
0 0 0
0 0 0
0 0 0
0 0 0
0 0 0
0 0 0
0 0 0
0 0 0
0 0 0
0 0 0
0 0 0
0 0 0
0 0 0
0 0 0
0 0 0
0 0 0
0 0 0
0 0 0
0 0 0
0 0 0
0 0 0
0 0 0
0 0 0
0 0 0
0 0 0
0 0 0
0 0 0
0 0 0
0 0 0
0 0 0
0 0 0
0 0 0
0 0 0
0 0 0
0 0 0
0 0 0
0 0 0
0 0 0
0 0 0
0 0 0
0 0 0
0 0 0
0 0 0
0 0 0
0 0 0
0 0 0
0 0 0
0 0 0
0 0 0
0 0 0
0 0 0
0 0 0
0 0 0
0 0 0
0 0 0
0 0 0
0 0 0
0 0 0
0 0 0
0 0 0
0 0 0
0 0 0
0 0 0
0 0 0
0 0 0
0 0 0
0 0 0
0 0 0
0 0 0
0 0 0
0 0 0
0 0 0
0 0 0
0 0 0
0 0 0
0 0 0
0 0 0
0 0 0
0 0 0
0 0 0
0 0 0
0 0 0
0 0 0
0 0 0
0 0 0
0 0 0
0 0 0
0 0 0
0 0 0
0 0 0
0 0 0
0 0 0
0 0 0
0 0 0
0 0 0
0 0 0
0 0 0
0 0 0
0 0 0
0 0 0
0 0 0
0 0 0
0 0 0
0 0 0
0 0 0
0 0 0
0 0 0
0 0 0
0 0 0
0 0 0
0 0 0
0 0 0
0 0 0
0 0 0
0 0 0
0 0 0
0 0 0
0 0 0
0 0 0
0 0 0
0 0 0
0 0 0
0 0 0
0 0 0
0 0 0
0 0 0
0 0 0
0 0 0
0 0 0
0 0 0
0 0 0
0 0 0
0 0 0
0 0 0
0 0 0
0 0 0
0 0 0
0 0 0
0 0 0
0 0 0
0 0 0
0 0 0
0 0 0
0 0 0
0 0 0
0 0 0
0 0 0
0 0 0
0 0 0
0 0 0
0 0 0
0 0 0
0 0 0
0 0 0
0 0 0
0 0 0
0 0 0
0 0 0
0 0 0
0 0 0
0 0 0
0 0 0
0 0 0
0 0 0
0 0 0
0 0 0
0 0 0
0 0 0
0 0 0
0 0 0
0 0 0
0 0 0
0 0 0
0 0 0
0 0 0
0 0 0
0 0 0
0 0 0
0 0 0
0 0 0
0 0 0
0 0 0
0 0 0
0 0 0
0 0 0
0 0 0
0 0 0
0 0 0
0 0 0
0 0 0
0 0 0
0 0 0
0 0 0
0 0 0
0 0 0
0 0 0
0 0 0
0 0 0
0 0 0
0 0 0
0 0 0
0 0 0
0 0 0
0 0 0
0 0 0
0 0 0
0 0 0
0 0 0
0 0 0
0 0 0
0 0 0
0 0 0
0 0 0
0 0 0
0 0 0
0 0 0
0 0 0
0 0 0
0 0 0
0 0 0
0 0 0
0 0 0
0 0 0
0 0 0
0 0 0
0 0 0
0 0 0
0 0 0
0 0 0
0 0 0
0 0 0
0 0 0
0 0 0
0 0 0
0 0 0
0 0 0
0 0 0
0 0 0
0 0 0
0 0 0
0 0 0
0 0 0
0 0 0
0 0 0
0 0 0
0 0 0
0 0 0
0 0 0
0 0 0
0 0 0
0 0 0
0 0 0
0 0 0
0 0 0
0 0 0
0 0 0
0 0 0
0 0 0
0 0 0
0 0 0
0 0 0
0 0 0
0 0 0
0 0 0
0 0 0
0 0 0
0 0 0
0 0 0
0 0 0
0 0 0
0 0 0
0 0 0
0 0 0
0 0 0
0 0 0
0 0 0
0 0 0
0 0 0
0 0 0
0 0 0
0 0 0
0 0 0
0 0 0
0 0 0
0 0 0
0 0 0
0 0 0
0 0 0
0 0 0
0 0 0
0 0 0
0 0 0
0 0 0
0 0 0
0 0 0
0 0 0
0 0 0
0 0 0
0 0 0
0 0 0
0 0 0
0 0 0
0 0 0
0 0 0
0 0 0
0 0 0
0 0 0
0 0 0
0 0 0
0 0 0
0 0 0
0 0 0
0 0 0
0 0 0
0 0 0
0 0 0
0 0 0
0 0 0
0 0 0
0 0 0
0 0 0
0 0 0
0 0 0
0 0 0
0 0 0
0 0 0
0 0 0
0 0 0
0 0 0
0 0 0
0 0 0
0 0 0
0 0 0
0 0 0
0 0 0
0 0 0
0 0 0
0 0 0
0 0 0
0 0 0
0 0 0
0 0 0
0 0 0
0 0 0
0 0 0
0 0 0
0 0 0
0 0 0
0 0 0
0 0 0
0 0 0
0 0 0
0 0 0
0 0 0
0 0 0
0 0 0
0 0 0
0 0 0
0 0 0
0 0 0
0 0 0
0 0 0
0 0 0
0 0 0
0 0 0
0 0 0
</DataArray>
<DataArray type="Float64" Name="cell vector length" format="ascii">
0 0 0 0 0 0 0 0 0 0 0 0 0 0 0 0 0 0 0 0 0 0 0 0 0 0 0 0 0 0 0 0 0 0 0 0 0 0 0 0 0 0 0 0 0 0 0 0 0 0 0 0 0 0 0 0 0 0 0 0 0 0 0 0 0 0 0 0 0 0 0 0 0 0 0 0 0 0 0 0 0 0 0 0 0 0 0 0 0 0 0 0 0 0 0 0 0 0 0 0 0 0 0 0 0 0 0 0 0 0 0 0 0 0 0 0 0 0 0 0 0 0 0 0 0 0 0 0 0 0 0 0 0 0 0 0 0 0 0 0 0 0 0 0 0 0 0 0 0 0 0 0 0 0 0 0 0 0 0 0 0 0 0 0 0 0 0 0 0 0 0 0 0 0 0 0 0 0 0 0 0 0 0 0 0 0 0 0 0 0 0 0 0 0 0 0 0 0 0 0 0 0 0 0 0 0 0 0 0 0 0 0 0 0 0 0 0 0 0 0 0 0 0 0 0 0 0 0 0 0 0 0 0 0 0 0 0 0 0 0 0 0 0 0 0 0 0 0 0 0 0 0 0 0 0 0 0 0 0 0 0 0 0 0 0 0 0 0 0 0 0 0 0 0 0 0 0 0 0 0 0 0 0 0 0 0 0 0 0 0 0 0 0 0 0 0 0 0 0 0 0 0 0 0 0 0 0 0 0 0 0 0 0 0 0 0 0 0 0 0 0 0 0 0 0 0 0 0 0 0 0 0 0 0 0 0 0 0 0 0 0 0 0 0 0 0 0 0 0 0 0 0 0 0 0 0 0 0 0 0 0 0 0 0 0 0 0 0 0 0 0 0 0 0 0 0 0 0 0 0 0 0 0 0 0 0 0 0 0 0 0 0 0 0 0 0 0 0 0 0 0 0 0 0 0 0 0 0 0 0 0 0 0 0 0 0 0 0 0 
</DataArray>
<DataArray type="Float64" Name="cell variable 4" format="ascii">
0.514292 1.06245 0.657465 1.07467 0.631062 0.94865 0.542818 0.94865 0.736473 0.8063 1.14226 1.04461 0.790107 1.04461 0.573608 0.919422 0.573608 1.10185 0.573608 0.573608 0.542818 0.99432 0.736473 1.00681 0.673042 0.66381 0.789941 0.503886 0.495708 0.631062 0.789941 0.626025 0.980966 0.626025 1.11547 0.495708 0.36504 0.631062 0.673042 0.626025 0.66381 0.343308 0.848855 0.919422 0.626025 1.10185 1.11547 0.848855 0.514292 0.657465 0.848855 0.8063 0.763876 0.789941 0.673042 1.07467 1.06245 0.736473 1.11547 0.912892 0.573608 0.708918 1.04461 1.07467 0.736473 0.542818 1.12037 0.848855 1.04461 1.00681 0.631062 0.503886 1.00681 0.90618 0.626025 1.04461 0.66381 0.94865 0.573608 1.11547 0.573608 0.708918 0.495708 0.790107 0.848855 0.912892 1.04461 1.10185 1.14226 0.66381 0.673042 0.708918 0.36504 0.626025 0.980966 0.980966 0.763876 0.919422 0.503886 1.11547 1.04461 1.04461 0.919422 0.495708 0.631062 0.919422 0.542818 1.12037 0.573608 0.912892 0.542818 0.790107 0.763876 0.673042 0.912892 0.673042 0.542818 0.657465 1.11547 0.789941 0.657465 1.07467 1.00681 0.94865 0.673042 0.673042 0.66381 1.06245 0.99432 0.790107 0.66381 0.763876 0.789941 0.848855 0.66381 1.06245 0.789941 0.789941 1.04461 0.789941 0.790107 1.00681 1.12037 0.763876 0.542818 0.980966 0.66381 0.99432 0.980966 0.848855 1.04461 0.980966 0.434405 0.919422 1.00681 0.8063 0.912892 0.790107 0.542818 1.06245 1.07467 0.94865 0.848855 1.06245 1.00681 0.763876 0.657465 1.11547 1.11547 1.10185 0.573608 0.919422 0.573608 0.626025 0.848855 0.673042 1.00681 1.00681 0.66381 0.790107 1.12037 1.00681 1.00681 0.657465 0.442722 0.980966 0.657465 1.11547 0.673042 0.848855 0.542818 0.912892 1.07467 0.631062 0.980966 0.789941 0.94865 0.763876 0.8063 0.919422 0.790107 0.90618 0.736473 0.657465 0.631062 0.912892 0.763876 0.708918 0.763876 0.980966 1.07467 0.673042 0.631062 0.495708 0.657465 0.514292 0.980966 0.673042 0.573608 1.07467 1.04461 1.04461 0.790107 1.10185 0.657465 0.8063 0.673042 1.10185 0.912892 0.763876 1.07467 0.90618 0.848855 1.10185 1.04461 0.919422 1.10185 0.399988 0.45141 0.631062 0.99432 0.94865 0.442722 1.11547 0.919422 1.00681 0.90618 0.736473 0.36504 1.07467 1.10185 0.573608 0.626025 1.14226 0.790107 0.763876 1.10185 0.99432 0.434405 0.790107 1.11547 0.573608 1.06245 0.36504 0.36504 0.631062 1.14226 0.912892 0.708918 0.919422 1.11547 0.789941 0.631062 0.542818 1.14226 0.631062 0.94865 0.631062 0.94865 1.11547 0.736473 0.736473 0.8063 0.912892 0.789941 0.631062 0.631062 0.626025 1.10185 1.00681 0.912892 1.14226 0.94865 0.763876 0.442722 0.8063 0.66381 1.12037 0.66381 0.673042 0.912892 0.790107 1.12037 1.06245 0.912892 0.848855 0.848855 0.673042 0.94865 0.90618 0.631062 0.763876 1.12037 1.07467 0.912892 0.399988 1.10185 1.11547 0.980966 0.8063 0.631062 0.789941 0.434405 0.848855 0.763876 0.848855 0.789941 1.14226 0.573608 0.673042 1.04461 0.66381 0.708918 0.708918 0.626025 0.980966 0.90618 0.495708 1.04461 0.657465 0.495708 0.631062 1.00681 0.790107 0.99432 1.06245 0.8063 0.848855 0.99432 1.12037 0.657465 0.573608 0.919422 0.657465 1.00681 0.789941 0.631062 0.8063 0.495708 1.14226 1.12037 0.542818 0.657465 0.919422 0.919422 0.763876 0.848855 1.06245 0.789941 1.11547 0.980966 0.631062 0.434405 1.10185 0.90618 0.790107 1.12037 0.542818 0.673042 0.626025 0.66381 1.11547 1.06245 0.8063 0.542818 0.919422 0.626025 0.90618 1.14226 0.542818 0.626025 1.04461 0.90618 0.657465 0.657465 0.919422 0.66381 0.511974 1.06245 0.399988 1.07467 1.11547 0.673042 0.790107 0.542818 1.14226 0.919422 1.07467 0.573608 0.573608 0.912892 0.8063 0.763876 1.06245 0.789941 1.00681 0.99432 0.99432 0.631062 
</DataArray>
<DataArray type="Float64" Name="cell variable 5" format="ascii">
0.0364304 0.00878122 0.0226112 0.00858434 0.0244954 0.0109898 0.0328244 0.0109898 0.0181031 0.0151488 0.00760594 0.00908091 0.0157662 0.00908091 0.0294962 0.0116913 0.0294962 0.00816951 0.0294962 0.0294962 0.0328244 0.0100133 0.0181031 0.00976872 0.021599 0.0221905 0.0157727 0.037893 0.0391044 0.0244954 0.0157727 0.0248813 0.0102849 0.0248813 0.00797274 0.0391044 0.0698059 0.0244954 0.021599 0.0248813 0.0221905 0.0782104 0.0136882 0.0116913 0.0248813 0.00816951 0.00797274 0.0136882 0.0364304 0.0226112 0.0136882 0.0151488 0.016849 0.0157727 0.021599 0.00858434 0.00878122 0.0181031 0.00797274 0.0118572 0.0294962 0.0195097 0.00908091 0.00858434 0.0181031 0.0328244 0.00790366 0.0136882 0.00908091 0.00976872 0.0244954 0.037893 0.00976872 0.0120314 0.0248813 0.00908091 0.0221905 0.0109898 0.0294962 0.00797274 0.0294962 0.0195097 0.0391044 0.0157662 0.0136882 0.0118572 0.00908091 0.00816951 0.00760594 0.0221905 0.021599 0.0195097 0.0698059 0.0248813 0.0102849 0.0102849 0.016849 0.0116913 0.037893 0.00797274 0.00908091 0.00908091 0.0116913 0.0391044 0.0244954 0.0116913 0.0328244 0.00790366 0.0294962 0.0118572 0.0328244 0.0157662 0.016849 0.021599 0.0118572 0.021599 0.0328244 0.0226112 0.00797274 0.0157727 0.0226112 0.00858434 0.00976872 0.0109898 0.021599 0.021599 0.0221905 0.00878122 0.0100133 0.0157662 0.0221905 0.016849 0.0157727 0.0136882 0.0221905 0.00878122 0.0157727 0.0157727 0.00908091 0.0157727 0.0157662 0.00976872 0.00790366 0.016849 0.0328244 0.0102849 0.0221905 0.0100133 0.0102849 0.0136882 0.00908091 0.0102849 0.0503251 0.0116913 0.00976872 0.0151488 0.0118572 0.0157662 0.0328244 0.00878122 0.00858434 0.0109898 0.0136882 0.00878122 0.00976872 0.016849 0.0226112 0.00797274 0.00797274 0.00816951 0.0294962 0.0116913 0.0294962 0.0248813 0.0136882 0.021599 0.00976872 0.00976872 0.0221905 0.0157662 0.00790366 0.00976872 0.00976872 0.0226112 0.0485429 0.0102849 0.0226112 0.00797274 0.021599 0.0136882 0.0328244 0.0118572 0.00858434 0.0244954 0.0102849 0.0157727 0.0109898 0.016849 0.0151488 0.0116913 0.0157662 0.0120314 0.0181031 0.0226112 0.0244954 0.0118572 0.016849 0.0195097 0.016849 0.0102849 0.00858434 0.021599 0.0244954 0.0391044 0.0226112 0.0364304 0.0102849 0.021599 0.0294962 0.00858434 0.00908091 0.00908091 0.0157662 0.00816951 0.0226112 0.0151488 0.021599 0.00816951 0.0118572 0.016849 0.00858434 0.0120314 0.0136882 0.00816951 0.00908091 0.0116913 0.00816951 0.0588268 0.0467791 0.0244954 0.0100133 0.0109898 0.0485429 0.00797274 0.0116913 0.00976872 0.0120314 0.0181031 0.0698059 0.00858434 0.00816951 0.0294962 0.0248813 0.00760594 0.0157662 0.016849 0.00816951 0.0100133 0.0503251 0.0157662 0.00797274 0.0294962 0.00878122 0.0698059 0.0698059 0.0244954 0.00760594 0.0118572 0.0195097 0.0116913 0.00797274 0.0157727 0.0244954 0.0328244 0.00760594 0.0244954 0.0109898 0.0244954 0.0109898 0.00797274 0.0181031 0.0181031 0.0151488 0.0118572 0.0157727 0.0244954 0.0244954 0.0248813 0.00816951 0.00976872 0.0118572 0.00760594 0.0109898 0.016849 0.0485429 0.0151488 0.0221905 0.00790366 0.0221905 0.021599 0.0118572 0.0157662 0.00790366 0.00878122 0.0118572 0.0136882 0.0136882 0.021599 0.0109898 0.0120314 0.0244954 0.016849 0.00790366 0.00858434 0.0118572 0.0588268 0.00816951 0.00797274 0.0102849 0.0151488 0.0244954 0.0157727 0.0503251 0.0136882 0.016849 0.0136882 0.0157727 0.00760594 0.0294962 0.021599 0.00908091 0.0221905 0.0195097 0.0195097 0.0248813 0.0102849 0.0120314 0.0391044 0.00908091 0.0226112 0.0391044 0.0244954 0.00976872 0.0157662 0.0100133 0.00878122 0.0151488 0.0136882 0.0100133 0.00790366 0.0226112 0.0294962 0.0116913 0.0226112 0.00976872 0.0157727 0.0244954 0.0151488 0.0391044 0.00760594 0.00790366 0.0328244 0.0226112 0.0116913 0.0116913 0.016849 0.0136882 0.00878122 0.0157727 0.00797274 0.0102849 0.0244954 0.0503251 0.00816951 0.0120314 0.0157662 0.00790366 0.0328244 0.021599 0.0248813 0.0221905 0.00797274 0.00878122 0.0151488 0.0328244 0.0116913 0.0248813 0.0120314 0.00760594 0.0328244 0.0248813 0.00908091 0.0120314 0.0226112 0.0226112 0.0116913 0.0221905 0.0367488 0.00878122 0.0588268 0.00858434 0.00797274 0.021599 0.0157662 0.0328244 0.00760594 0.0116913 0.00858434 0.0294962 0.0294962 0.0118572 0.0151488 0.016849 0.00878122 0.0157727 0.00976872 0.0100133 0.0100133 0.0244954 
</DataArray>
<DataArray type="Float64" Name="cell variable 6" format="ascii">
0.000349016 5.74138e-06 8.84138e-05 5.3719e-06 0.000110922 1.10661e-05 0.000251962 1.10661e-05 4.69278e-05 2.80904e-05 3.76475e-06 6.33494e-06 3.15261e-05 6.33494e-06 0.000187165 1.32528e-05 0.000187165 4.64493e-06 0.000187165 0.000187165 0.000251962 8.43313e-06 4.69278e-05 7.8448e-06 7.76673e-05 8.3838e-05 3.156e-05 0.000380196 0.000410215 0.000110922 3.156e-05 0.000115922 9.11938e-06 0.000115922 4.32387e-06 0.000410215 0.0019794 0.000110922 7.76673e-05 0.000115922 8.3838e-05 0.00310284 2.09522e-05 1.32528e-05 0.000115922 4.64493e-06 4.32387e-06 2.09522e-05 0.000349016 8.84138e-05 2.09522e-05 2.80904e-05 3.81646e-05 3.156e-05 7.76673e-05 5.3719e-06 5.74138e-06 4.69278e-05 4.32387e-06 1.38076e-05 0.000187165 5.81379e-05 6.33494e-06 5.3719e-06 4.69278e-05 0.000251962 4.21468e-06 2.09522e-05 6.33494e-06 7.8448e-06 0.000110922 0.000380196 7.8448e-06 1.4406e-05 0.000115922 6.33494e-06 8.3838e-05 1.10661e-05 0.000187165 4.32387e-06 0.000187165 5.81379e-05 0.000410215 3.15261e-05 2.09522e-05 1.38076e-05 6.33494e-06 4.64493e-06 3.76475e-06 8.3838e-05 7.76673e-05 5.81379e-05 0.0019794 0.000115922 9.11938e-06 9.11938e-06 3.81646e-05 1.32528e-05 0.000380196 4.32387e-06 6.33494e-06 6.33494e-06 1.32528e-05 0.000410215 0.000110922 1.32528e-05 0.000251962 4.21468e-06 0.000187165 1.38076e-05 0.000251962 3.15261e-05 3.81646e-05 7.76673e-05 1.38076e-05 7.76673e-05 0.000251962 8.84138e-05 4.32387e-06 3.156e-05 8.84138e-05 5.3719e-06 7.8448e-06 1.10661e-05 7.76673e-05 7.76673e-05 8.3838e-05 5.74138e-06 8.43313e-06 3.15261e-05 8.3838e-05 3.81646e-05 3.156e-05 2.09522e-05 8.3838e-05 5.74138e-06 3.156e-05 3.156e-05 6.33494e-06 3.156e-05 3.15261e-05 7.8448e-06 4.21468e-06 3.81646e-05 0.000251962 9.11938e-06 8.3838e-05 8.43313e-06 9.11938e-06 2.09522e-05 6.33494e-06 9.11938e-06 0.000857904 1.32528e-05 7.8448e-06 2.80904e-05 1.38076e-05 3.15261e-05 0.000251962 5.74138e-06 5.3719e-06 1.10661e-05 2.09522e-05 5.74138e-06 7.8448e-06 3.81646e-05 8.84138e-05 4.32387e-06 4.32387e-06 4.64493e-06 0.000187165 1.32528e-05 0.000187165 0.000115922 2.09522e-05 7.76673e-05 7.8448e-06 7.8448e-06 8.3838e-05 3.15261e-05 4.21468e-06 7.8448e-06 7.8448e-06 8.84138e-05 0.000858618 9.11938e-06 8.84138e-05 4.32387e-06 7.76673e-05 2.09522e-05 0.000251962 1.38076e-05 5.3719e-06 0.000110922 9.11938e-06 3.156e-05 1.10661e-05 3.81646e-05 2.80904e-05 1.32528e-05 3.15261e-05 1.4406e-05 4.69278e-05 8.84138e-05 0.000110922 1.38076e-05 3.81646e-05 5.81379e-05 3.81646e-05 9.11938e-06 5.3719e-06 7.76673e-05 0.000110922 0.000410215 8.84138e-05 0.000349016 9.11938e-06 7.76673e-05 0.000187165 5.3719e-06 6.33494e-06 6.33494e-06 3.15261e-05 4.64493e-06 8.84138e-05 2.80904e-05 7.76673e-05 4.64493e-06 1.38076e-05 3.81646e-05 5.3719e-06 1.4406e-05 2.09522e-05 4.64493e-06 6.33494e-06 1.32528e-05 4.64493e-06 0.00127682 0.000696942 0.000110922 8.43313e-06 1.10661e-05 0.000858618 4.32387e-06 1.32528e-05 7.8448e-06 1.4406e-05 4.69278e-05 0.0019794 5.3719e-06 4.64493e-06 0.000187165 0.000115922 3.76475e-06 3.15261e-05 3.81646e-05 4.64493e-06 8.43313e-06 0.000857904 3.15261e-05 4.32387e-06 0.000187165 5.74138e-06 0.0019794 0.0019794 0.000110922 3.76475e-06 1.38076e-05 5.81379e-05 1.32528e-05 4.32387e-06 3.156e-05 0.000110922 0.000251962 3.76475e-06 0.000110922 1.10661e-05 0.000110922 1.10661e-05 4.32387e-06 4.69278e-05 4.69278e-05 2.80904e-05 1.38076e-05 3.156e-05 0.000110922 0.000110922 0.000115922 4.64493e-06 7.8448e-06 1.38076e-05 3.76475e-06 1.10661e-05 3.81646e-05 0.000858618 2.80904e-05 8.3838e-05 4.21468e-06 8.3838e-05 7.76673e-05 1.38076e-05 3.15261e-05 4.21468e-06 5.74138e-06 1.38076e-05 2.09522e-05 2.09522e-05 7.76673e-05 1.10661e-05 1.4406e-05 0.000110922 3.81646e-05 4.21468e-06 5.3719e-06 1.38076e-05 0.00127682 4.64493e-06 4.32387e-06 9.11938e-06 2.80904e-05 0.000110922 3.156e-05 0.000857904 2.09522e-05 3.81646e-05 2.09522e-05 3.156e-05 3.76475e-06 0.000187165 7.76673e-05 6.33494e-06 8.3838e-05 5.81379e-05 5.81379e-05 0.000115922 9.11938e-06 1.4406e-05 0.000410215 6.33494e-06 8.84138e-05 0.000410215 0.000110922 7.8448e-06 3.15261e-05 8.43313e-06 5.74138e-06 2.80904e-05 2.09522e-05 8.43313e-06 4.21468e-06 8.84138e-05 0.000187165 1.32528e-05 8.84138e-05 7.8448e-06 3.156e-05 0.000110922 2.80904e-05 0.000410215 3.76475e-06 4.21468e-06 0.000251962 8.84138e-05 1.32528e-05 1.32528e-05 3.81646e-05 2.09522e-05 5.74138e-06 3.156e-05 4.32387e-06 9.11938e-06 0.000110922 0.000857904 4.64493e-06 1.4406e-05 3.15261e-05 4.21468e-06 0.000251962 7.76673e-05 0.000115922 8.3838e-05 4.32387e-06 5.74138e-06 2.80904e-05 0.000251962 1.32528e-05 0.000115922 1.4406e-05 3.76475e-06 0.000251962 0.000115922 6.33494e-06 1.4406e-05 8.84138e-05 8.84138e-05 1.32528e-05 8.3838e-05 0.00035504 5.74138e-06 0.00127682 5.3719e-06 4.32387e-06 7.76673e-05 3.15261e-05 0.000251962 3.76475e-06 1.32528e-05 5.3719e-06 0.000187165 0.000187165 1.38076e-05 2.80904e-05 3.81646e-05 5.74138e-06 3.156e-05 7.8448e-06 8.43313e-06 8.43313e-06 0.000110922 
</DataArray>
<DataArray type="Float64" Name="cell variable 7" format="ascii">