<VTKFile type="UnstructuredGrid" version="0.1">
<UnstructuredGrid>
<Piece  NumberOfPoints="    2465" NumberOfCells="     412">
<Points>
<DataArray type="Float64" NumberOfComponents="3" format="ascii">
27.1415 -24.1612 0.0
27.314 -20.2049 0.0
22.9273 -22.0057 0.0
20.9195 -22.8519 0.0
22.7917 -27.4232 0.0
24.5844 -27.5507 0.0
31.8668 -33.8449 0.0
31.7502 -33.3442 0.0
26.5683 -33.0571 0.0
25.9292 -33.5845 0.0
22.9079 -38.4849 0.0
-19.7917 45.9005 0.0
-22.381 45.8662 0.0
-23.7462 45.7487 0.0
-24.9953 44.7448 0.0
-22.4493 40.5475 0.0
-20.0862 40.7847 0.0
0.232444 11.6101 0.0
-1.12375 12.9452 0.0
-8.1971 7.63345 0.0
-7.61587 6.14767 0.0
-7.48483 5.8845 0.0
39.3584 -6.0283 0.0
40.3752 -5.43887 0.0
38.4627 -0.750776 0.0
35.162 -4.90039 0.0
36.1403 -6.94514 0.0
43.1984 -0.159606 0.0
42.1215 -5.02689 0.0
45.868 -8.08836 0.0
48.1337 -4.90271 0.0
14.98 55.2548 0.0
18.1189 57.4835 0.0
13.2794 59.6937 0.0
9.61963 57.4332 0.0
10.1529 56.7965 0.0
9.65992 -14.194 0.0
13.0901 -9.02894 0.0
12.0602 -7.41834 0.0
6.20908 -9.52344 0.0
-22.5044 -46.1249 0.0
-19.7833 -49.8954 0.0
-16.4129 -45.8865 0.0
-19.6252 -42.8492 0.0
-40.0426 33.1063 0.0
-40.0194 32.675 0.0
-39.0706 32.1144 0.0
-34.9414 29.7096 0.0
-34.315 30.0738 0.0
-31.156 33.6036 0.0
-41.7255 -6.92943 0.0
-41.214 -9.04208 0.0
-38.035 -9.79618 0.0
-33.4156 -9.69425 0.0
-32.6356 -8.74266 0.0
-33.1088 -5.9601 0.0
-33.7785 -5.01614 0.0
-26.6647 -10.9438 0.0
-31.9906 -9.19939 0.0
-32.7706 -10.151 0.0
-32.5893 -14.3093 0.0
-31.7174 -14.9173 0.0
-29.8388 -15.7962 0.0
-30.1 44.1369 0.0
-31.0297 47.2409 0.0
-37.5253 44.367 0.0
-36.3371 42.0314 0.0
-33.434 42.4944 0.0
-31.1941 42.9731 0.0
-5.50568 -4.58854 0.0
-5.91329 -4.51396 0.0
-7.41681 -4.90005 0.0
-8.49035 -9.22683 0.0
-5.18392 -10.6206 0.0
-3.99831 -9.9473 0.0
50.5513 7.02354 0.0
50.1839 3.66708 0.0
55.6688 4.18218 0.0
56.3858 8.23012 0.0
55.5625 8.30452 0.0
51.7284 7.97952 0.0
-47.4114 -18.6371 0.0
-45.8961 -21.121 0.0
-44.6966 -21.1081 0.0
-40.6091 -17.1509 0.0
-41.7794 -14.4442 0.0
-12.5451 31.7544 0.0
-12.1931 33.9996 0.0
-14.5955 35.8427 0.0
-16.0622 35.8476 0.0
-16.5431 35.8469 0.0
-18.0936 34.5515 0.0
-19.4263 31.3128 0.0
-51.1765 27.0456 0.0
-53.7458 23.6658 0.0
-51.1976 18.3431 0.0
-49.2472 25.1768 0.0
-50.7788 26.9154 0.0
23.3256 -9.20539 0.0
27.126 -8.60859 0.0
28.8748 -5.15119 0.0
26.5939 -2.68019 0.0
26.166 -2.56919 0.0
22.3669 29.5185 0.0
25.2557 31.2786 0.0
23.918 34.1257 0.0
21.8708 34.7229 0.0
17.4389 34.6447 0.0
-54.15 9.29569 0.0
-53.6333 10.7036 0.0
-56.9974 15.0628 0.0
-57.0678 12.0283 0.0
-56.9913 8.53289 0.0
-55.9563 7.03516 0.0
-13.3931 10.1883 0.0
-12.0181 10.0873 0.0
-8.62674 15.7192 0.0
-8.82289 16.0727 0.0
-10.2206 16.2044 0.0
-12.2019 16.3794 0.0
-14.7677 12.4667 0.0
-14.8223 11.1925 0.0
18.354 21.0669 0.0
19.3609 19.8261 0.0
24.6359 23.5021 0.0
24.2746 24.1637 0.0
21.1908 25.6315 0.0
23.0892 13.5995 0.0
25.5889 12.7553 0.0
27.8434 14.3717 0.0
28.2923 17.7503 0.0
28.2846 18.5019 0.0
27.0452 19.349 0.0
26.4159 19.1846 0.0
-35.1316 29.3043 0.0
-39.2608 31.7091 0.0
-38.4218 25.0463 0.0
-36.9316 24.2452 0.0
-28.7259 13.3156 0.0
-30.6977 12.8022 0.0
-31.2608 10.3937 0.0
-29.8713 8.59195 0.0
-24.4018 8.4314 0.0
-26.0888 19.9691 0.0
-27.0613 21.3554 0.0
-32.256 17.7125 0.0
-32.122 16.5322 0.0
-30.7748 13.4828 0.0
-28.8031 13.9963 0.0
-28.5666 14.1151 0.0
56.266 3.19969 0.0
55.0876 -1.21602 0.0
55.6595 -1.89394 0.0
59.4655 -1.73362 0.0
60.3728 0.247744 0.0
60.9298 3.25998 0.0
41.8107 -11.925 0.0
40.9223 -11.7629 0.0
35.6501 -12.5439 0.0
35.4684 -12.9518 0.0
34.9361 -15.7156 0.0
36.6996 -16.7418 0.0
17.7341 -33.7221 0.0
18.6312 -33.6385 0.0
24.6488 -29.0381 0.0
24.5273 -28.6322 0.0
24.1983 -28.2254 0.0
22.4056 -28.0979 0.0
17.3591 -31.0251 0.0
17.4399 -33.0155 0.0
-33.8667 -1.22897 0.0
-30.9445 0.297217 0.0
-34.5529 6.60579 0.0
-36.7317 5.38632 0.0
-36.3854 0.28463 0.0
6.62568 26.5662 0.0
3.11371 28.0497 0.0
2.04601 27.496 0.0
-2.54439 23.8592 0.0
-1.22393 22.5449 0.0
-0.189293 22.8008 0.0
7.61575 17.0779 0.0
6.51008 17.3556 0.0
1.86744 11.8051 0.0
2.13624 11.6393 0.0
5.5107 11.3799 0.0
7.42845 14.0104 0.0
8.05066 15.9291 0.0
-45.9989 6.2842 0.0
-46.7023 7.50865 0.0
-53.6313 8.85846 0.0
-55.4376 6.59793 0.0
-55.4512 6.37942 0.0
-55.4255 6.18302 0.0
-50.3071 3.97858 0.0
-47.8545 3.81784 0.0
-47.5104 4.1347 0.0
-46.0903 5.94282 0.0
-19.7444 -29.4382 0.0
-18.579 -28.0872 0.0
-20.0948 -21.0549 0.0
-20.5298 -20.6802 0.0
-21.2472 -20.6329 0.0
-23.3966 -23.3024 0.0
-24.2086 -24.509 0.0
-21.6182 56.0311 0.0
-25.316 56.1665 0.0
-27.1714 52.8834 0.0
-22.8839 51.5567 0.0
-7.22318 28.0386 0.0
-6.59105 25.0327 0.0
-4.85441 24.1283 0.0
-4.24611 24.069 0.0
-3.08032 23.949 0.0
1.51008 27.5858 0.0
-2.92429 -44.3817 0.0
-0.505397 -42.939 0.0
1.2917 -41.4594 0.0
-3.91983 -36.5731 0.0
-4.60121 -36.7861 0.0
-4.40261 -43.9676 0.0
-4.18501 -44.138 0.0
-38.2869 -18.4881 0.0
-40.3558 -17.3972 0.0
-44.4432 -21.3545 0.0
-41.9835 -23.9838 0.0
52.7689 16.357 0.0
52.2682 16.4893 0.0
48.1581 10.3255 0.0
50.296 7.58113 0.0
51.473 8.53711 0.0
31.452 20.6612 0.0
34.2003 22.0704 0.0
31.8718 25.9522 0.0
28.0857 24.9455 0.0
-19.1749 -52.9923 0.0
-17.5772 -54.6941 0.0
-16.3706 -55.447 0.0
-8.48203 -55.2448 0.0
-8.29711 -54.7677 0.0
-8.58625 -54.1825 0.0
-9.63288 -53.4282 0.0
-12.9418 -51.2618 0.0
-18.7192 -51.8754 0.0
-22.8778 -46.4863 0.0
-25.013 -46.0528 0.0
-26.8437 -50.0238 0.0
-25.9217 -51.095 0.0
-22.9053 -53.2057 0.0
-20.1024 -52.6245 0.0
-19.6466 -51.5076 0.0
-20.1566 -50.2569 0.0
3.49814 54.8908 0.0
7.02772 57.806 0.0
6.22153 58.5001 0.0
1.41254 58.9362 0.0
-0.765566 58.2573 0.0
-2.73808 56.4768 0.0
18.1569 -40.9837 0.0
13.1951 -43.6449 0.0
12.5764 -44.2118 0.0
14.7144 -49.0171 0.0
16.1793 -48.8682 0.0
-14.9856 -45.857 0.0
-12.5153 -47.9204 0.0
-8.95767 -44.5433 0.0
-8.64495 -44.0606 0.0
-9.73453 -42.8246 0.0
-12.9853 -41.2511 0.0
-34.0936 36.5079 0.0
-30.332 35.9041 0.0
-30.2344 39.9511 0.0
-31.0422 42.4392 0.0
-33.2821 41.9605 0.0
20.3955 26.4771 0.0
20.3109 27.638 0.0
14.5333 30.9249 0.0
13.731 30.623 0.0
10.2185 26.0044 0.0
10.3682 25.8208 0.0
15.6881 26.1244 0.0
-9.20136 42.5146 0.0
-7.53562 42.4834 0.0
-3.68254 45.0353 0.0
-3.6977 45.6629 0.0
-9.68654 47.0347 0.0
14.6506 -14.8953 0.0
15.4079 -10.3737 0.0
13.4158 -9.25264 0.0
9.98562 -14.4177 0.0
9.9719 -14.7568 0.0
19.3773 8.85534 0.0
21.4132 5.24815 0.0
25.6004 9.03483 0.0
25.3575 10.7138 0.0
-33.9311 -3.52677 0.0
-34.1515 -1.67575 0.0
-36.6702 -0.162143 0.0
-39.6055 -1.19039 0.0
-41.1756 -3.14045 0.0
4.97565 -37.1479 0.0
5.38122 -36.7307 0.0
3.93945 -31.7777 0.0
-0.354453 -33.0289 0.0
-1.13247 -34.101 0.0
-1.14674 -34.2595 0.0
-11.7838 31.874 0.0
-11.518 30.964 0.0
-3.58656 35.978 0.0
-3.24658 36.5325 0.0
-6.06056 37.4845 0.0
-11.4318 34.1192 0.0
-17.3845 15.4285 0.0
-18.486 17.9992 0.0
-19.0458 18.9099 0.0
-20.0848 18.8331 0.0
-21.6172 17.4614 0.0
-22.7529 14.1748 0.0
-21.8042 12.2546 0.0
-16.6227 55.4535 0.0
-21.1677 56.0013 0.0
-22.4334 51.5269 0.0
-21.7255 51.1773 0.0
-17.535 52.6772 0.0
14.3882 8.62241 0.0
16.6688 11.1935 0.0
14.7864 13.4391 0.0
14.2777 13.9007 0.0
8.75878 15.7715 0.0
8.13657 13.8528 0.0
0.721712 -47.8685 0.0
1.25302 -51.1647 0.0
7.47083 -47.2554 0.0
7.74659 -46.6019 0.0
7.84092 -45.4654 0.0
6.71949 -45.6477 0.0
10.8489 -2.86442 0.0
6.18221 -1.49017 0.0
5.04272 -5.28722 0.0
5.00952 -7.43991 0.0
14.5043 -2.10256 0.0
18.5563 -4.67656 0.0
18.8636 0.846463 0.0
17.9995 0.922343 0.0
16.151 0.907961 0.0
20.0572 -10.0006 0.0
22.373 -9.51929 0.0
22.9585 -9.20575 0.0
25.7988 -2.56955 0.0
25.5052 -2.36734 0.0
23.2362 -2.65979 0.0
20.6064 -6.10623 0.0
20.4108 -6.77046 0.0
19.6237 -9.5375 0.0
21.7503 35.307 0.0
23.7975 34.7098 0.0
24.3934 36.5512 0.0
24.4592 37.4912 0.0
24.1312 38.5566 0.0
22.0325 40.472 0.0
16.2654 41.402 0.0
15.2584 40.5366 0.0
13.2364 -43.0769 0.0
18.1982 -40.4157 0.0
19.1389 -39.6116 0.0
17.0485 -35.9222 0.0
13.6489 -37.9632 0.0
-1.2069 13.1526 0.0
-2.01105 13.9559 0.0
-3.07965 14.3217 0.0
-4.88013 13.7 0.0
-8.62078 8.74379 0.0
-8.28025 7.84092 0.0
38.0052 41.306 0.0
35.3774 37.4342 0.0
41.084 35.857 0.0
40.5999 39.7958 0.0
39.2238 40.8181 0.0
-20.149 -2.26954 0.0
-19.9079 -1.72089 0.0
-20.5393 -0.175236 0.0
-23.2491 2.99333 0.0
-27.9839 1.26201 0.0
-28.5464 0.24301 0.0
-26.9754 -1.35883 0.0
-3.2247 2.72366 0.0
-4.54612 2.6319 0.0
-5.60008 -3.83639 0.0
-5.19247 -3.91097 0.0
-1.94791 -4.15504 0.0
-0.876435 -2.24275 0.0
-0.377133 -0.542678 0.0
-2.2028 2.15423 0.0
17.2429 10.5147 0.0
17.0541 10.5237 0.0
14.7734 7.95252 0.0
14.3516 6.96397 0.0
15.7919 2.27606 0.0
16.0773 1.62869 0.0
17.9258 1.64307 0.0
39.6172 48.3433 0.0
37.4135 50.9044 0.0
36.7195 51.066 0.0
36.3699 50.4019 0.0
36.4541 43.6786 0.0
37.9315 42.0984 0.0
39.1501 41.6105 0.0
47.2266 -32.1984 0.0
46.7118 -32.9042 0.0
46.2626 -40.2737 0.0
51.1286 -32.2465 0.0
51.1218 -30.9526 0.0
50.5334 -31.0405 0.0
30.4016 44.7409 0.0
29.3474 46.1956 0.0
23.1613 42.3899 0.0
22.7236 41.5663 0.0
22.6422 40.8559 0.0
24.7409 38.9405 0.0
28.7046 40.4274 0.0
29.1376 40.6226 0.0
-12.3607 29.1805 0.0
-15.5612 26.7227 0.0
-15.1538 23.7739 0.0
-12.1354 22.7784 0.0
-11.1982 23.3568 0.0
27.0842 -2.24009 0.0
29.3651 -4.7111 0.0
33.0742 -4.11957 0.0
33.4806 -3.98838 0.0
33.8779 2.33751 0.0
8.19104 -46.8908 0.0
7.91529 -47.5443 0.0
5.43359 -53.4545 0.0
5.84918 -53.7758 0.0
11.4605 -52.0668 0.0
11.6682 -51.7493 0.0
-7.17578 42.2307 0.0
-5.95657 39.9339 0.0
0.517005 41.8725 0.0
0.49251 42.2013 0.0
-3.3227 44.7826 0.0
27.4845 50.2282 0.0
29.5772 47.9029 0.0
35.7007 50.8587 0.0
36.0504 51.5228 0.0
30.8721 53.7075 0.0
27.5688 51.5781 0.0
-36.3962 -36.5754 0.0
-29.7074 -34.2524 0.0
-29.6789 -32.587 0.0
-31.6653 -30.0663 0.0
-34.9587 -30.4704 0.0
-35.1208 -31.0812 0.0
1.61162 42.0244 0.0
1.63612 41.6956 0.0
1.69277 41.5561 0.0
10.3882 37.386 0.0
11.2828 37.3913 0.0
12.6331 40.3337 0.0
11.7372 40.8869 0.0
3.90257 43.2796 0.0
-0.130954 50.16 0.0
2.79861 53.4848 0.0
3.21781 54.5078 0.0
-3.01841 56.0938 0.0
-3.49929 55.846 0.0
-2.46852 51.3329 0.0
-0.920683 50.0155 0.0
46.3099 -9.40759 0.0
45.7664 -11.627 0.0
48.3999 -17.0028 0.0
[...]
<CellData Scalars="cell variable 4" Vectors="cell vector">
<DataArray type="Float64" NumberOfComponents="3" Name="cell vector" format="ascii">
0 0 0
0 0 0
0 0 0
0 0 0
0 0 0
0 0 0
0 0 0
0 0 0
0 0 0
0 0 0
0 0 0
0 0 0
0 0 0
0 0 0
0 0 0
0 0 0
0 0 0
0 0 0
0 0 0
0 0 0
0 0 0
0 0 0
0 0 0
0 0 0
0 0 0
0 0 0
0 0 0
0 0 0
0 0 0
0 0 0
0 0 0
0 0 0
0 0 0
0 0 0
0 0 0
0 0 0
0 0 0
0 0 0
0 0 0
0 0 0
0 0 0
0 0 0
0 0 0
0 0 0
0 0 0
0 0 0
0 0 0
0 0 0
0 0 0
0 0 0
0 0 0
0 0 0
0 0 0
0 0 0
0 0 0
0 0 0
0 0 0
0 0 0
0 0 0
0 0 0
0 0 0
0 0 0
0 0 0
0 0 0
0 0 0
0 0 0
0 0 0
0 0 0
0 0 0
0 0 0
0 0 0
0 0 0
0 0 0
0 0 0
0 0 0
0 0 0
0 0 0
0 0 0
0 0 0
0 0 0
0 0 0
0 0 0
0 0 0
0 0 0
0 0 0
0 0 0
0 0 0
0 0 0
0 0 0
0 0 0
0 0 0
0 0 0
0 0 0
0 0 0
0 0 0
0 0 0
0 0 0
0 0 0
0 0 0
0 0 0
0 0 0
0 0 0
0 0 0
0 0 0
0 0 0
0 0 0
0 0 0
0 0 0
0 0 0
0 0 0
0 0 0
0 0 0
0 0 0
0 0 0
0 0 0
0 0 0
0 0 0
0 0 0
0 0 0
0 0 0
0 0 0
0 0 0
0 0 0
0 0 0
0 0 0
0 0 0
0 0 0
0 0 0
0 0 0
0 0 0
0 0 0
0 0 0
0 0 0
0 0 0
0 0 0
0 0 0
0 0 0
0 0 0
0 0 0
0 0 0
0 0 0
0 0 0
0 0 0
0 0 0
0 0 0
0 0 0
0 0 0
0 0 0
0 0 0
0 0 0
0 0 0
0 0 0
0 0 0
0 0 0
0 0 0
0 0 0
0 0 0
0 0 0
0 0 0
0 0 0
0 0 0
0 0 0
0 0 0
0 0 0
0 0 0
0 0 0
0 0 0
0 0 0
0 0 0
0 0 0
0 0 0
0 0 0
0 0 0
0 0 0
0 0 0
0 0 0
0 0 0
0 0 0
0 0 0
0 0 0
0 0 0
0 0 0
0 0 0
0 0 0
0 0 0
0 0 0
0 0 0
0 0 0
0 0 0
0 0 0
0 0 0
0 0 0
0 0 0
0 0 0
0 0 0
0 0 0
0 0 0
0 0 0
0 0 0
0 0 0
0 0 0
0 0 0
0 0 0
0 0 0
0 0 0
0 0 0
0 0 0
0 0 0
0 0 0
0 0 0
0 0 0
0 0 0
0 0 0
0 0 0
0 0 0
0 0 0
0 0 0
0 0 0
0 0 0
0 0 0
0 0 0
0 0 0
0 0 0
0 0 0
0 0 0
0 0 0
0 0 0
0 0 0
0 0 0
0 0 0
0 0 0
0 0 0
0 0 0
0 0 0
0 0 0
0 0 0
0 0 0
0 0 0
0 0 0
0 0 0
0 0 0
0 0 0
0 0 0
0 0 0
0 0 0
0 0 0
0 0 0
0 0 0
0 0 0
0 0 0
0 0 0
0 0 0
0 0 0
0 0 0
0 0 0
0 0 0
0 0 0
0 0 0
0 0 0
0 0 0
0 0 0
0 0 0
0 0 0
0 0 0
0 0 0
0 0 0
0 0 0
0 0 0
0 0 0
0 0 0
0 0 0
0 0 0
0 0 0
0 0 0
0 0 0
0 0 0
0 0 0
0 0 0
0 0 0
0 0 0
0 0 0
0 0 0
0 0 0
0 0 0
0 0 0
0 0 0
0 0 0
0 0 0
0 0 0
0 0 0
0 0 0
0 0 0
0 0 0
0 0 0
0 0 0
0 0 0
0 0 0
0 0 0
0 0 0
0 0 0
0 0 0
0 0 0
0 0 0
0 0 0
0 0 0
0 0 0
0 0 0
0 0 0
0 0 0
0 0 0
0 0 0
0 0 0
0 0 0
0 0 0
0 0 0
0 0 0
0 0 0
0 0 0
0 0 0
0 0 0
0 0 0
0 0 0
0 0 0
0 0 0
0 0 0
0 0 0
0 0 0
0 0 0
0 0 0
0 0 0
0 0 0
0 0 0
0 0 0
0 0 0
0 0 0
0 0 0
0 0 0
0 0 0
0 0 0
0 0 0
0 0 0
0 0 0
0 0 0
0 0 0
0 0 0
0 0 0
0 0 0
0 0 0
0 0 0
0 0 0
0 0 0
0 0 0
0 0 0
0 0 0
0 0 0
0 0 0
0 0 0
0 0 0
0 0 0
0 0 0
0 0 0
0 0 0
0 0 0
0 0 0
0 0 0
0 0 0
0 0 0
0 0 0
0 0 0
0 0 0
0 0 0
0 0 0
0 0 0
0 0 0
0 0 0
0 0 0
0 0 0
0 0 0
0 0 0
0 0 0
0 0 0
0 0 0
0 0 0
0 0 0
0 0 0
0 0 0
0 0 0
0 0 0
0 0 0
0 0 0
0 0 0
0 0 0
0 0 0
0 0 0
0 0 0
0 0 0
0 0 0
0 0 0
0 0 0
0 0 0
0 0 0
0 0 0
0 0 0
0 0 0
0 0 0
0 0 0
0 0 0
0 0 0
0 0 0
0 0 0
0 0 0
0 0 0
</DataArray>
<DataArray type="Float64" Name="cell vector length" format="ascii">
0 0 0 0 0 0 0 0 0 0 0 0 0 0 0 0 0 0 0 0 0 0 0 0 0 0 0 0 0 0 0 0 0 0 0 0 0 0 0 0 0 0 0 0 0 0 0 0 0 0 0 0 0 0 0 0 0 0 0 0 0 0 0 0 0 0 0 0 0 0 0 0 0 0 0 0 0 0 0 0 0 0 0 0 0 0 0 0 0 0 0 0 0 0 0 0 0 0 0 0 0 0 0 0 0 0 0 0 0 0 0 0 0 0 0 0 0 0 0 0 0 0 0 0 0 0 0 0 0 0 0 0 0 0 0 0 0 0 0 0 0 0 0 0 0 0 0 0 0 0 0 0 0 0 0 0 0 0 0 0 0 0 0 0 0 0 0 0 0 0 0 0 0 0 0 0 0 0 0 0 0 0 0 0 0 0 0 0 0 0 0 0 0 0 0 0 0 0 0 0 0 0 0 0 0 0 0 0 0 0 0 0 0 0 0 0 0 0 0 0 0 0 0 0 0 0 0 0 0 0 0 0 0 0 0 0 0 0 0 0 0 0 0 0 0 0 0 0 0 0 0 0 0 0 0 0 0 0 0 0 0 0 0 0 0 0 0 0 0 0 0 0 0 0 0 0 0 0 0 0 0 0 0 0 0 0 0 0 0 0 0 0 0 0 0 0 0 0 0 0 0 0 0 0 0 0 0 0 0 0 0 0 0 0 0 0 0 0 0 0 0 0 0 0 0 0 0 0 0 0 0 0 0 0 0 0 0 0 0 0 0 0 0 0 0 0 0 0 0 0 0 0 0 0 0 0 0 0 0 0 0 0 0 0 0 0 0 0 0 0 0 0 0 0 0 0 0 0 0 0 0 0 0 0 0 0 0 0 0 0 0 0 0 0 0 0 0 0 0 0 0 0 0 0 0 0 0 0 0 0 0 0 
</DataArray>
<DataArray type="Float64" Name="cell variable 4" format="ascii">
0.316217 0.000510187 6.16323e-05 1.07467 0.249242 0.0032488 1.23542e-08 0.94865 0.000319359 0.000137838 0.23011 0.479217 5.48914e-07 1.04461 1.14453e-06 0.000586701 0.334198 4.61276e-06 0.573608 0.161465 1.34433e-07 0.99432 0.511974 0.511974 0.000425284 0.495708 0.393381 1.14453e-06 0.0824302 0.163146 0.332003 0.626025 0.980966 3.42138e-05 0.437452 1.19294e-07 0.36504 0.184973 0.00760007 4.69927e-06 0.252014 1.1995e-07 2.42345e-06 5.96913e-06 0.000160982 0.000319359 0.000137838 0.434405 0.000705084 0.657465 0.848855 0.23011 0.442722 0.33356 0.673042 1.19294e-07 1.06245 0.000237451 1.11547 0.912892 0.573608 0.161465 0.187543 1.07467 1.55471e-05 0.542818 1.12037 0.848855 1.10621e-08 1.97283e-08 4.18495e-05 0.503886 0.45141 0.000237451 0.0976075 7.55742e-08 0.000116047 0.0505895 5.96913e-06 1.61534e-05 5.26566e-05 0.00103121 5.60239e-07 0.0032488 0.118662 7.29789e-07 0.0824302 1.10185 1.14226 0.371127 0.184973 0.708918 5.26566e-05 0.000160982 4.42555e-05 0.00273317 0.118662 1.1995e-07 1.38398e-06 6.13175e-07 0.503886 7.9236e-08 1.68594e-06 0.313432 0.631062 0.919422 0.479217 5.76039e-06 0.434405 0.912892 0.542818 0.00370628 0.000157331 0.673042 3.49399e-07 8.33062e-06 2.42345e-06 6.16323e-05 0.000116047 0.789941 0.00403603 0.153908 0.399988 0.343308 0.393381 0.000425284 0.179448 0.573608 0.99432 0.000705084 0.514292 4.42555e-05 0.789941 0.000705084 0.66381 4.18495e-05 1.04772e-07 4.61276e-06 1.04461 0.0505895 2.34778e-08 1.00681 7.58754e-07 0.393247 0.187543 1.61534e-05 0.66381 6.97512e-07 0.32239 8.68069e-05 0.0773391 0.980966 0.00151096 0.919422 1.00681 7.29789e-07 0.23011 0.790107 0.542818 0.000237451 3.42138e-05 0.94865 0.848855 0.136507 1.10621e-08 0.763876 0.657465 1.68594e-06 7.29789e-07 0.36504 0.27464 0.184973 0.00403603 0.371127 0.163146 0.313432 1.00681 4.69927e-06 0.130161 0.0824302 1.12037 0.179448 0.00760007 0.000331293 0.00103121 1.89305e-07 0.657465 1.11547 0.313432 0.136507 1.23799e-05 1.68594e-06 1.07467 5.26566e-05 7.58754e-07 0.000209614 6.13175e-07 0.0773391 1.5044e-05 1.89305e-07 0.790107 1.34433e-07 0.161465 1.55471e-05 0.631062 0.50937 0.45141 3.48316e-07 7.55742e-08 0.442722 0.514292 0.000157331 4.61276e-06 0.495708 0.0773391 0.153908 3.48316e-07 7.58754e-07 1.38398e-06 1.23799e-05 0.252014 0.316217 5.60239e-07 0.00145277 0.000306373 0.8063 0.000331293 0.332003 0.0978407 0.763876 4.42555e-05 0.90618 0.27464 0.187543 0.000510187 0.0646441 1.10185 1.14453e-06 0.00370628 0.631062 1.55471e-05 4.69927e-06 0.343308 0.32239 0.000306373 0.399988 0.90618 0.736473 2.24794e-07 0.0032488 0.00760007 0.393247 0.626025 0.36504 0.316217 0.763876 1.10185 3.09214e-07 0.0097703 7.9236e-08 0.32239 0.514292 0.184059 1.5044e-05 0.000209614 0.27464 0.0978407 0.0505895 0.437452 4.61276e-06 0.000319359 0.789941 0.136507 0.542818 7.29789e-07 0.000586701 0.136507 3.49399e-07 0.184973 3.49399e-07 0.187543 3.42138e-05 0.00370628 0.00103121 0.000116047 0.000157331 0.00760007 0.343308 0.50937 0.0097703 1.14453e-06 0.23011 0.00151096 2.34778e-08 3.09214e-07 0.0032488 0.000319359 2.24794e-07 0.66381 0.673042 3.09214e-07 1.1995e-07 1.68594e-06 0.179448 0.0646441 0.118662 0.000160982 0.00145277 0.000510187 1.61534e-05 0.631062 5.41779e-08 6.13175e-07 5.48914e-07 0.912892 0.153908 0.130161 1.11547 0.980966 5.48914e-07 0.0824302 0.32239 0.161465 0.399988 4.69927e-06 0.118662 0.153908 2.10901e-08 0.00103121 0.33356 0.163146 0.000137838 0.708918 5.26566e-05 0.626025 5.96913e-06 6.16323e-05 0.495708 0.36504 1.55471e-05 5.48914e-07 0.249242 0.000425284 3.42138e-05 0.000425284 7.58754e-07 1.97283e-08 0.848855 0.000510187 0.434405 0.657465 0.573608 0.919422 0.442722 0.399988 0.252014 0.000137838 0.8063 0.00273317 3.09214e-07 0.000237451 0.343308 6.16323e-05 1.23799e-05 0.919422 0.763876 2.24794e-07 0.313432 0.789941 1.11547 5.76039e-06 0.442722 0.0773391 1.10185 5.96913e-06 0.790107 0.136507 0.184059 0.673042 0.00370628 0.66381 0.000160982 3.49399e-07 0.514292 0.0976075 0.00151096 0.252014 0.249242 1.14226 0.000157331 0.626025 1.04461 0.179448 1.61534e-05 0.334198 8.33062e-06 0.00151096 0.511974 1.06245 6.13175e-07 0.0505895 0.736473 5.76039e-06 5.76039e-06 0.511974 0.130161 0.23011 7.29789e-07 1.14226 0.912892 1.04461 0.790107 
</DataArray>
<DataArray type="Float64" Name="cell variable 5" format="ascii">
0.0909148 0.999974 1 0.00858434 0.138655 0.998946 1 0.0109898 0.99999 0.999998 0.158855 0.0417277 1 0.00908091 1 0.999966 0.082177 1 0.0294962 0.277231 1 0.0100133 0.0367488 0.0367488 0.999982 0.0391044 0.0606986 1 0.595425 0.273099 0.0831765 0.0248813 0.0102849 1 0.0496613 1 0.0698059 0.226167 0.994257 1 0.136034 1 1 1 0.999997 0.99999 0.999998 0.0503251 0.99995 0.0226112 0.0136882 0.158855 0.0485429 0.0824658 0.021599 1 0.00878122 0.999994 0.00797274 0.0118572 0.0294962 0.277231 0.221374 0.00858434 1 0.0328244 0.00790366 0.0136882 1 1 1 0.037893 0.0467791 0.999994 0.512105 1 0.999999 0.796223 1 1 1 0.999894 1 0.998946 0.415271 1 0.595425 0.00816951 0.00760594 0.0676886 0.226167 0.0195097 1 0.999997 1 0.999254 0.415271 1 1 1 0.037893 1 1 0.0923878 0.0244954 0.0116913 0.0417277 1 0.0503251 0.0118572 0.0328244 0.998628 0.999998 0.021599 1 1 1 1 0.999999 0.0157727 0.998374 0.296844 0.0588268 0.0782104 0.0606986 0.999982 0.236958 0.0294962 0.0100133 0.99995 0.0364304 1 0.0157727 0.99995 0.0221905 1 1 1 0.00908091 0.796223 1 0.00976872 1 0.0607373 0.221374 1 0.0221905 1 0.0877689 0.999999 0.62573 0.0102849 0.999772 0.0116913 0.00976872 1 0.158855 0.0157662 0.0328244 0.999994 1 0.0109898 0.0136882 0.349234 1 0.016849 0.0226112 1 1 0.0698059 0.117059 0.226167 0.998374 0.0676886 0.273099 0.0923878 0.00976872 1 0.371169 0.595425 0.00790366 0.236958 0.994257 0.999989 0.999894 1 0.0226112 0.00797274 0.0923878 0.349234 1 1 0.00858434 1 1 0.999996 1 0.62573 1 1 0.0157662 1 0.277231 1 0.0244954 0.0371116 0.0467791 1 1 0.0485429 0.0364304 0.999998 1 0.0391044 0.62573 0.296844 1 1 1 1 0.136034 0.0909148 1 0.999789 0.999991 0.0151488 0.999989 0.0831765 0.510913 0.016849 1 0.0120314 0.117059 0.221374 0.999974 0.705275 0.00816951 1 0.998628 0.0244954 1 1 0.0782104 0.0877689 0.999991 0.0588268 0.0120314 0.0181031 1 0.998946 0.994257 0.0607373 0.0248813 0.0698059 0.0909148 0.016849 0.00816951 1 0.990544 1 0.0877689 0.0364304 0.227907 1 0.999996 0.117059 0.510913 0.796223 0.0496613 1 0.99999 0.0157727 0.349234 0.0328244 1 0.999966 0.349234 1 0.226167 1 0.221374 1 0.998628 0.999894 0.999999 0.999998 0.994257 0.0782104 0.0371116 0.990544 1 0.158855 0.999772 1 1 0.998946 0.99999 1 0.0221905 0.021599 1 1 1 0.236958 0.705275 0.415271 0.999997 0.999789 0.999974 1 0.0244954 1 1 1 0.0118572 0.296844 0.371169 0.00797274 0.0102849 1 0.595425 0.0877689 0.277231 0.0588268 1 0.415271 0.296844 1 0.999894 0.0824658 0.273099 0.999998 0.0195097 1 0.0248813 1 1 0.0391044 0.0698059 1 1 0.138655 0.999982 1 0.999982 1 1 0.0136882 0.999974 0.0503251 0.0226112 0.0294962 0.0116913 0.0485429 0.0588268 0.136034 0.999998 0.0151488 0.999254 1 0.999994 0.0782104 1 1 0.0116913 0.016849 1 0.0923878 0.0157727 0.00797274 1 0.0485429 0.62573 0.00816951 1 0.0157662 0.349234 0.227907 0.021599 0.998628 0.0221905 0.999997 1 0.0364304 0.512105 0.999772 0.136034 0.138655 0.00760594 0.999998 0.0248813 0.00908091 0.236958 1 0.082177 1 0.999772 0.0367488 0.00878122 1 0.796223 0.0181031 1 1 0.0367488 0.371169 0.158855 1 0.00760594 0.0118572 0.00908091 0.0157662 
</DataArray>
<DataArray type="Float64" Name="cell variable 6" format="ascii">
0.0038835 1.00883 1.00913 5.3719e-06 0.0566856 1.00681 1.00917 1.10661e-05 1.00896 1.00908 0.0671729 0.00051123 1.00917 6.33494e-06 1.00917 1.00878 0.00576492 1.00917 0.000187165 0.298329 1.00917 8.43313e-06 0.00035504 0.00035504 1.00889 0.000410215 0.00151522 1.00917 0.752638 0.294057 0.00364689 0.000115922 9.11938e-06 1.00915 0.000885689 1.00917 0.0019794 0.208208 1.00277 1.00917 0.0441278 1.00917 1.00917 1.00917 1.00907 1.00896 1.00908 0.000857904 1.0087 8.84138e-05 2.09522e-05 0.0671729 0.000858618 0.00403961 7.76673e-05 1.00917 5.74138e-06 1.00902 4.32387e-06 1.38076e-05 0.000187165 0.298329 0.185318 5.3719e-06 1.00916 0.000251962 4.21468e-06 2.09522e-05 1.00917 1.00917 1.00915 0.000380196 0.000696942 1.00902 0.67289 1.00917 1.0091 0.900072 1.00917 1.00916 1.00914 1.00849 1.00917 1.00681 0.533485 1.00917 0.752638 4.64493e-06 3.76475e-06 0.0019189 0.208208 5.81379e-05 1.00914 1.00907 1.00914 1.00716 0.533485 1.00917 1.00917 1.00917 0.000380196 1.00917 1.00917 0.00439847 0.000110922 1.32528e-05 0.00051123 1.00917 0.000857904 1.38076e-05 0.000251962 1.00642 1.00907 7.76673e-05 1.00917 1.00917 1.00917 1.00913 1.0091 3.156e-05 1.00605 0.3398 0.00127682 0.00310284 0.00151522 1.00889 0.235078 0.000187165 8.43313e-06 1.0087 0.000349016 1.00914 3.156e-05 1.0087 8.3838e-05 1.00915 1.00917 1.00917 6.33494e-06 0.900072 1.00917 7.8448e-06 1.00917 0.00202135 0.185318 1.00916 8.3838e-05 1.00917 0.00628005 1.00912 0.780596 9.11938e-06 1.00816 1.32528e-05 7.8448e-06 1.00917 0.0671729 3.15261e-05 0.000251962 1.00902 1.00915 1.10661e-05 2.09522e-05 0.432355 1.00917 3.81646e-05 8.84138e-05 1.00917 1.00917 0.0019794 0.02163 0.208208 1.00605 0.0019189 0.294057 0.00439847 7.8448e-06 1.00917 0.477444 0.752638 4.21468e-06 0.235078 1.00277 1.00895 1.00849 1.00917 8.84138e-05 4.32387e-06 0.00439847 0.432355 1.00917 1.00917 5.3719e-06 1.00914 1.00917 1.00904 1.00917 0.780596 1.00916 1.00917 3.15261e-05 1.00917 0.298329 1.00916 0.000110922 0.000394946 0.000696942 1.00917 1.00917 0.000858618 0.000349016 1.00907 1.00917 0.000410215 0.780596 0.3398 1.00917 1.00917 1.00917 1.00917 0.0441278 0.0038835 1.00917 1.00814 1.00897 2.80904e-05 1.00895 0.00364689 0.674122 3.81646e-05 1.00914 1.4406e-05 0.02163 0.185318 1.00883 0.841792 4.64493e-06 1.00917 1.00642 0.000110922 1.00916 1.00917 0.00310284 0.00628005 1.00897 0.00127682 1.4406e-05 4.69278e-05 1.00917 1.00681 1.00277 0.00202135 0.000115922 0.0019794 0.0038835 3.81646e-05 4.64493e-06 1.00917 1.00014 1.00917 0.00628005 0.000349016 0.235443 1.00916 1.00904 0.02163 0.674122 0.900072 0.000885689 1.00917 1.00896 3.156e-05 0.432355 0.000251962 1.00917 1.00878 0.432355 1.00917 0.208208 1.00917 0.185318 1.00915 1.00642 1.00849 1.0091 1.00907 1.00277 0.00310284 0.000394946 1.00014 1.00917 0.0671729 1.00816 1.00917 1.00917 1.00681 1.00896 1.00917 8.3838e-05 7.76673e-05 1.00917 1.00917 1.00917 0.235078 0.841792 0.533485 1.00907 1.00814 1.00883 1.00916 0.000110922 1.00917 1.00917 1.00917 1.38076e-05 0.3398 0.477444 4.32387e-06 9.11938e-06 1.00917 0.752638 0.00628005 0.298329 0.00127682 1.00917 0.533485 0.3398 1.00917 1.00849 0.00403961 0.294057 1.00908 5.81379e-05 1.00914 0.000115922 1.00917 1.00913 0.000410215 0.0019794 1.00916 1.00917 0.0566856 1.00889 1.00915 1.00889 1.00917 1.00917 2.09522e-05 1.00883 0.000857904 8.84138e-05 0.000187165 1.32528e-05 0.000858618 0.00127682 0.0441278 1.00908 2.80904e-05 1.00716 1.00917 1.00902 0.00310284 1.00913 1.00917 1.32528e-05 3.81646e-05 1.00917 0.00439847 3.156e-05 4.32387e-06 1.00917 0.000858618 0.780596 4.64493e-06 1.00917 3.15261e-05 0.432355 0.235443 7.76673e-05 1.00642 8.3838e-05 1.00907 1.00917 0.000349016 0.67289 1.00816 0.0441278 0.0566856 3.76475e-06 1.00907 0.000115922 6.33494e-06 0.235078 1.00916 0.00576492 1.00917 1.00816 0.00035504 5.74138e-06 1.00917 0.900072 4.69278e-05 1.00917 1.00917 0.00035504 0.477444 0.0671729 1.00917 3.76475e-06 1.38076e-05 6.33494e-06 3.15261e-05 
</DataArray>
<DataArray type="Float64" Name="cell variable 7" format="ascii">
0.357275 0.805214 0.804393 0.0863829 0.413855 0.731648 0.944982 0.109939 0.786592 0.818915 0.46057 0.24144 0.895885 0.091923 0.908704 0.789622 0.334908 0.89681 0.203114 0.543895 0.953353 0.10127 0.2268 0.2268 0.777768 0.233945 0.290041 0.908704 0.652741 0.531783 0.340125 0.185875 0.103782 0.881455 0.262734 0.924335 0.311423 0.488241 0.695937 0.865788 0.422896 0.91048 0.886845 0.876672 0.804465 0.786592 0.818915 0.264653 0.790771 0.176526 0.129973 0.46057 0.259721 0.337987 0.172124 0.924335 0.0886341 0.815305 0.0788486 0.116913 0.203114 0.543895 0.511928 0.0863829 0.87201 0.214434 0.0779382 0.129973 0.947397 0.947968 0.828165 0.230311 0.255368 0.815305 0.58928 0.926812 0.821805 0.667622 0.876672 0.855098 0.808066 0.74517 0.910934 0.731648 0.633332 0.91184 0.652741 0.0813708 0.0738515 0.306453 0.488241 0.162493 0.808066 0.804465 0.85435 0.786302 0.633332 0.91048 0.900885 0.926956 0.230311 0.937093 0.922196 0.360012 0.184332 0.115625 0.24144 0.912087 0.264653 0.116913 0.214434 0.736426 0.802201 0.172124 0.887905 0.869271 0.886845 0.804393 0.821805 0.142859 0.781706 0.544906 0.285858 0.329428 0.290041 0.777768 0.481302 0.203114 0.10127 0.790771 0.225806 0.85435 0.142859 0.790771 0.174715 0.828165 0.926865 0.89681 0.091923 0.667622 0.922008 0.0989326 0.900971 0.288948 0.511928 0.855098 0.174715 0.921346 0.347352 0.812727 0.646851 0.103782 0.723507 0.115625 0.0989326 0.91184 0.46057 0.142821 0.214434 0.815305 0.881455 0.109939 0.129973 0.58017 0.947397 0.148901 0.176526 0.922196 0.91184 0.311423 0.399197 0.488241 0.781706 0.306453 0.531783 0.360012 0.0989326 0.865788 0.557964 0.652741 0.0779382 0.481302 0.695937 0.823381 0.74517 0.938631 0.176526 0.0788486 0.360012 0.58017 0.864126 0.922196 0.0863829 0.808066 0.900971 0.803638 0.926956 0.646851 0.867885 0.938631 0.142821 0.953353 0.543895 0.87201 0.184332 0.227704 0.255368 0.905229 0.926812 0.259721 0.225806 0.802201 0.89681 0.233945 0.646851 0.544906 0.905229 0.900971 0.900885 0.864126 0.422896 0.357275 0.910934 0.822606 0.774006 0.139181 0.823381 0.340125 0.570965 0.148901 0.85435 0.118245 0.399197 0.511928 0.805214 0.663687 0.0813708 0.908704 0.736426 0.184332 0.87201 0.865788 0.329428 0.347352 0.774006 0.285858 0.118245 0.15552 0.921969 0.731648 0.695937 0.288948 0.185875 0.311423 0.357275 0.148901 0.0813708 0.914119 0.724735 0.937093 0.347352 0.225806 0.426674 0.867885 0.803638 0.399197 0.570965 0.667622 0.262734 0.89681 0.786592 0.142859 0.58017 0.214434 0.91184 0.789622 0.58017 0.887905 0.488241 0.887905 0.511928 0.881455 0.736426 0.74517 0.821805 0.802201 0.695937 0.329428 0.227704 0.724735 0.908704 0.46057 0.723507 0.922008 0.914119 0.731648 0.786592 0.921969 0.174715 0.172124 0.914119 0.91048 0.922196 0.481302 0.663687 0.633332 0.804465 0.822606 0.805214 0.855098 0.184332 0.955764 0.926956 0.895885 0.116913 0.544906 0.557964 0.0788486 0.103782 0.895885 0.652741 0.347352 0.543895 0.285858 0.865788 0.633332 0.544906 0.945385 0.74517 0.337987 0.531783 0.818915 0.162493 0.808066 0.185875 0.876672 0.804393 0.233945 0.311423 0.87201 0.895885 0.413855 0.777768 0.881455 0.777768 0.900971 0.947968 0.129973 0.805214 0.264653 0.176526 0.203114 0.115625 0.259721 0.285858 0.422896 0.818915 0.139181 0.786302 0.914119 0.815305 0.329428 0.804393 0.864126 0.115625 0.148901 0.921969 0.360012 0.142859 0.0788486 0.912087 0.259721 0.646851 0.0813708 0.876672 0.142821 0.58017 0.426674 0.172124 0.736426 0.174715 0.804465 0.887905 0.225806 0.58928 0.723507 0.422896 0.413855 0.0738515 0.802201 0.185875 0.091923 0.481302 0.855098 0.334908 0.869271 0.723507 0.2268 0.0886341 0.926956 0.667622 0.15552 0.912087 0.912087 0.2268 0.557964 0.46057 0.91184 0.0738515 0.116913 0.091923 0.142821 
</DataArray>
<DataArray type="Float64" Name="cell variable 8" format="ascii">