<VTKFile type="UnstructuredGrid" version="0.1">
<UnstructuredGrid>
<Piece  NumberOfPoints="    3447" NumberOfCells="    2525">
<Points>
<DataArray type="Float64" NumberOfComponents="3" format="ascii">
12.6818 32.1718 0 
15.4681 13.3404 0 
-17.6364 -20.9919 0 
33.0098 -52.4711 0 
16.1127 5.22736 0 
-21.3187 1.70509 0 
-28.4363 29.3721 0 
54.6777 22.3494 0 
52.1097 -3.44728 0 
3.60374 -48.373 0 
25.6945 -1.76476 0 
-5.38879 -62.446 0 
0.141446 -57.9156 0 
47.1978 -12.4144 0 
27.364 26.4902 0 
5.40145 -19.2626 0 
-39.962 34.5223 0 
-12.4328 33.1627 0 
-46.2436 23.9971 0 
-44.5125 25.8023 0 
-7.01501 52.1777 0 
35.5757 15.1295 0 
51.4453 0.953041 0 
11.4013 1.63522 0 
2.83623 -57.6025 0 
-22.0092 21.4807 0 
-15.15 -21.4269 0 
-26.794 56.656 0 
16.3336 -18.0969 0 
-1.83606 -41.6279 0 
3.25914 -34.9643 0 
-31.4975 -35.5554 0 
-54.2732 -22.7365 0 
-54.3374 -3.77573 0 
-52.8908 -27.9707 0 
-12.247 -26.3203 0 
-14.4134 47.3147 0 
17.1919 12.7459 0 
-9.62621 8.20769 0 
-39.176 5.3623 0 
-30.4536 -36.3837 0 
-13.8218 -38.2547 0 
-0.695812 -19.2148 0 
-40.9175 -21.0943 0 
58.8636 16.6224 0 
-10.2285 42.8923 0 
-22.5887 -0.701265 0 
52.1737 9.91873 0 
9.55863 39.5456 0 
-22.6686 22.0689 0 
4.63086 36.8839 0 
-1.96815 -58.1512 0 
-47.1808 -17.3864 0 
36.3519 5.11952 0 
-34.3758 27.4644 0 
6.75227 -61.5981 0 
31.3319 35.5106 0 
19.0678 18.5902 0 
23.9383 -50.5246 0 
11.6922 -55.993 0 
-36.2946 41.2255 0 
21.8481 -58.1472 0 
-1.35682 -57.9404 0 
-7.87649 -0.709944 0 
-21.4048 45.9425 0 
28.7299 -15.4571 0 
44.9181 -19.4326 0 
43.4347 -33.7163 0 
44.5345 -33.2515 0 
-34.1063 22.3239 0 
26.9353 -7.22797 0 
-22.5128 -10.4137 0 
5.94468 -49.8617 0 
-40.5395 23.4464 0 
32.1781 5.53601 0 
35.4843 -5.40043 0 
-52.8359 -18.1596 0 
-33.7344 23.5616 0 
-7.94186 -38.4809 0 
13.4127 2.32756 0 
-63.5461 0.203444 0 
18.661 28.3004 0 
-19.4735 -19.5078 0 
-36.266 14.1241 0 
-1.24435 -15.3133 0 
3.12163 49.3525 0 
57.833 18.8419 0 
-49.9127 21.5133 0 
56.2148 24.2821 0 
-1.73278 -38.6101 0 
-39.5022 -22.9843 0 
-12.7339 15.9134 0 
43.1825 11.4916 0 
14.3844 23.3378 0 
-42.3634 -17.9907 0 
44.0905 40.059 0 
57.9869 -4.29922 0 
-61.2071 -2.78746 0 
22.0911 57.0648 0 
-45.3357 2.9832 0 
14.2826 -55.8188 0 
-3.87623 1.78682 0 
-27.5225 45.3091 0 
-27.9429 -8.94136 0 
24.3336 1.66624 0 
-26.4346 -0.558805 0 
28.658 29.2026 0 
20.9747 -1.68303 0 
40.5536 19.8463 0 
-36.4251 30.6697 0 
-45.5989 -37.5491 0 
-33.5812 23.7742 0 
-14.1263 10.0964 0 
52.6496 -15.6606 0 
31.8236 34.143 0 
-0.321534 -27.1061 0 
-35.0947 41.6974 0 
14.5564 -48.5643 0 
-10.663 -44.2686 0 
-4.85779 52.2186 0 
59.7335 12.9461 0 
14.0559 -1.25857 0 
-46.2106 25.0962 0 
-1.82752 22.7691 0 
15.0517 -46.3618 0 
-19.457 54.8788 0 
-31.5794 -41.8358 0 
34.23 19.8689 0 
9.44842 11.1791 0 
-52.1353 -8.55906 0 
22.374 45.3487 0 
-43.5246 -2.48039 0 
21.5346 8.27077 0 
-23.5058 -36.6643 0 
-20.2035 55.9106 0 
-36.6267 4.6437 0 
-21.0505 -38.1814 0 
33.6092 -47.1072 0 
8.7503 16.9845 0 
7.49112 -5.06471 0 
32.0327 52.3989 0 
-56.9188 12.6658 0 
22.3732 43.5577 0 
-12.1376 32.8725 0 
-24.3304 -5.8337 0 
4.88152 61.7385 0 
-53.4544 25.8167 0 
-47.4999 -21.5407 0 
-49.8378 -3.9575 0 
0.116945 48.4928 0 
34.1792 39.9776 0 
58.3875 -13.2915 0 
-52.9492 -5.04147 0 
20.5775 -31.1203 0 
-44.1938 -37.0492 0 
29.4245 19.0917 0 
17.4256 36.6224 0 
38.3344 23.86 0 
-47.2747 40.1187 0 
32.8278 12.595 0 
-44.081 -7.96682 0 
-24.2774 -28.7543 0 
38.2723 -0.889887 0 
15.9273 29.8272 0 
-6.64335 -55.9119 0 
42.9964 -12.9224 0 
37.3116 26.1631 0 
34.5605 -35.6039 0 
2.68955 34.6445 0 
-34.0822 -50.0166 0 
52.249 13.9891 0 
-51.967 32.3728 0 
42.2533 44.3386 0 
-25.4699 -51.0802 0 
12.0332 -14.8678 0 
-18.0739 38.4458 0 
-28.1058 50.0478 0 
-54.0737 5.40259 0 
20.8749 -36.7697 0 
28.5952 -17.0448 0 
7.28931 -33.6436 0 
1.66048 46.7816 0 
-16.3466 42.1615 0 
-2.76734 8.19544 0 
-22.3486 37.71 0 
43.448 -42.007 0 
28.2591 -28.9102 0 
21.0036 58.0198 0 
21.437 -20.6755 0 
-54.053 -26.0144 0 
4.65505 43.3302 0 
29.2737 11.582 0 
-11.0275 -33.0907 0 
4.22725 56.5246 0 
-53.4441 10.327 0 
34.5565 20.3732 0 
12.0402 23.9478 0 
-38.0104 17.8823 0 
6.90759 8.62906 0 
48.4824 -23.6522 0 
12.33 44.7363 0 
58.4516 -5.31262 0 
-27.6972 22.7494 0 
-28.7564 -29.2334 0 
-8.04661 -22.0991 0 
-3.20335 28.3166 0 
-50.0614 -27.0401 0 
42.4911 -33.7494 0 
-4.33057 -9.87978 0 
0.434329 -27.3451 0 
-9.79409 -45.0113 0 
-36.8348 -37.854 0 
-19.2221 53.6987 0 
55.4344 -31.6258 0 
12.839 48.5536 0 
38.8146 -23.7165 0 
-12.7461 61.4888 0 
-11.3329 36.261 0 
-16.1005 25.0762 0 
-9.47798 50.6155 0 
-27.2222 38.0012 0 
-53.0903 6.41284 0 
45.8939 4.86015 0 
-12.3438 14.4761 0 
23.6529 47.5981 0 
32.0874 5.88136 0 
23.9407 -55.2037 0 
30.059 31.8686 0 
-60.3988 -19.6706 0 
-8.88164 44.6318 0 
-4.35049 39.59 0 
32.1883 -4.32259 0 
-26.8288 7.25869 0 
-36.0052 13.6956 0 
-50.3145 -28.1651 0 
-32.4142 4.30092 0 
27.1447 47.0784 0 
-15.3818 13.7553 0 
-46.7785 22.9103 0 
-41.0441 -32.3616 0 
-23.8881 -33.4644 0 
-2.17452 41.2245 0 
-37.29 -13.6729 0 
13.986 -2.16063 0 
43.4466 -21.865 0 
-6.87785 -16.5281 0 
3.8804 24.2892 0 
-10.8451 -41.5712 0 
-18.7312 36.1933 0 
-43.5936 42.8387 0 
-50.1736 0.803948 0 
35.0421 -39.7511 0 
14.5278 14.3541 0 
53.3688 -20.5532 0 
14.4809 -40.8379 0 
-17.6037 -45.6113 0 
-58.3835 -11.2713 0 
20.387 -58.887 0 
51.5742 -2.96224 0 
-28.4124 -28.1849 0 
-32.4453 -35.4119 0 
11.3416 -14.3239 0 
-50.9744 32.5901 0 
43.169 -2.18986 0 
7.42661 -31.7027 0 
31.2 -20.0361 0 
-16.3058 19.355 0 
-26.5586 -41.1442 0 
-14.8525 1.19661 0 
52.5739 -28.2587 0 
-25.7634 52.3436 0 
-33.37 -51.1475 0 
-28.2373 -4.36095 0 
-43.9451 -39.7504 0 
28.7306 18.6146 0 
-0.0802615 -35.6148 0 
-31.4905 -43.5915 0 
-48.0021 39.7003 0 
-21.296 44.5136 0 
-11.7432 -9.48919 0 
-15.9162 34.8394 0 
9.87723 33.8677 0 
-9.85431 -32.5754 0 
34.434 -8.9686 0 
17.4143 -11.8199 0 
-16.4769 47.3927 0 
47.4166 -2.45653 0 
-51.2397 -17.5541 0 
38.6252 -7.10905 0 
-27.7947 18.8193 0 
-35.9036 -3.60124 0 
-8.20564 -48.3263 0 
-6.40836 33.1152 0 
-33.5302 31.2552 0 
-54.0367 10.4932 0 
6.80508 6.28368 0 
-21.9386 -51.4472 0 
0.422602 47.5233 0 
-20.1872 26.9387 0 
-9.99007 -54.3602 0 
-14.4832 14.2394 0 
13.1728 36.9857 0 
-13.5394 -54.7032 0 
41.4133 18.2789 0 
-47.5347 14.8278 0 
36.494 -30.6759 0 
12.9366 57.9288 0 
3.07831 25.014 0 
16.9344 44.9866 0 
40.2689 46.3826 0 
51.8649 14.0635 0 
-16.287 -2.67934 0 
-54.6915 -0.0695217 0 
22.7671 -50.6398 0 
26.8815 -9.4743 0 
-44.7604 8.07584 0 
-29.5847 24.0711 0 
-10.7863 -24.5332 0 
53.8643 -17.5341 0 
-14.697 -62.9178 0 
43.6117 -40.8439 0 
53.1619 -12.1396 0 
14.7965 -34.8236 0 
41.9483 3.51451 0 
30.9724 39.2095 0 
-1.01411 -5.33902 0 
-17.827 -15.1642 0 
12.6655 -40.3183 0 
32.279 -53.4716 0 
-45.6423 2.0949 0 
31.0613 -21.289 0 
-35.9088 -3.63513 0 
3.63251 -15.7777 0 
-43.3629 -46.1139 0 
33.1292 47.6491 0 
32.8411 -33.98 0 
-47.9031 14.1428 0 
-33.3283 49.5099 0 
0.058145 57.8346 0 
-35.7262 29.4288 0 
-8.53871 51.4865 0 
-0.639403 26.2013 0 
31.1932 -20.9099 0 
1.84043 34.5218 0 
-12.285 -54.7135 0 
28.8796 52.3621 0 
-3.62791 31.3624 0 
57.3193 -24.9999 0 
-14.8309 10.4974 0 
48.1981 15.4007 0 
45.6977 6.61837 0 
-27.7381 10.3298 0 
-25.7732 11.0266 0 
-5.1062 -10.1659 0 
14.1697 -19.6216 0 
-27.7402 39.8208 0 
54.0735 -20.3881 0 
-0.264903 48.6259 0 
-10.7382 -24.1356 0 
24.7571 -53.9287 0 
9.98037 -10.745 0 
3.80355 24.4162 0 
-52.7906 11.6877 0 
-33.2538 10.1229 0 
22.0798 -23.7807 0 
5.13525 29.8634 0 
-13.2768 61.4967 0 
30.016 40.8592 0 
-34.2109 1.31982 0 
1.63184 -0.934817 0 
-4.26133 -32.9182 0 
31.4293 8.90727 0 
-25.2101 -51.1258 0 
22.4902 52.9307 0 
6.78064 -33.2473 0 
-35.708 -41.1094 0 
38.7013 -40.4935 0 
0.683083 -57.9783 0 
-18.0075 21.0935 0 
5.34574 -9.44652 0 
57.5091 11.2985 0 
-43.8562 42.7768 0 
21.5736 14.8756 0 
19.7553 9.72369 0 
13.3381 -13.8394 0 
-47.5517 28.5839 0 
-17.7522 7.3389 0 
38.4505 -13.216 0 
-15.983 54.2858 0 
-13.0049 -16.5184 0 
-44.4548 20.241 0 
-7.48526 6.18045 0 
14.5193 50.2447 0 
-29.5522 -11.2089 0 
28.8887 -14.6377 0 
-62.467 4.05977 0 
-10.4159 8.20054 0 
-52.3954 -33.332 0 
-19.9438 53.0671 0 
-31.5516 -43.3663 0 
-10.736 27.3357 0 
-29.2202 -39.7861 0 
16.357 58.6876 0 
-19.2989 -53.1524 0 
4.61126 -49.8259 0 
-20.4831 -46.1444 0 
-21.4869 26.282 0 
-39.8291 18.0075 0 
-6.76464 -15.8745 0 
19.6715 33.6379 0 
-37.307 -28.1228 0 
-8.82871 9.72546 0 
48.3571 31.5563 0 
-43.4859 33.1867 0 
-29.9775 -53.0084 0 
-24.8848 32.0459 0 
-8.84485 -0.0227433 0 
0.338998 15.4087 0 
-10.6876 -42.3482 0 
-10.963 -56.7726 0 
25.3729 -41.7792 0 
-3.20676 0.132572 0 
11.9621 4.92613 0 
39.925 20.9422 0 
-25.9892 58.1903 0 
-4.44988 37.9738 0 
7.97456 -34.4663 0 
-10.9779 -16.6213 0 
-42.064 34.0208 0 
13.2756 23.0616 0 
28.3447 -46.0302 0 
-49.0959 30.5422 0 
-0.670542 15.9043 0 
-16.199 14.3851 0 
-34.2008 -1.97357 0 
25.5131 -31.8554 0 
-12.8165 -2.08044 0 
9.63729 -10.0071 0 
-38.7691 -6.53739 0 
-52.0234 8.64659 0 
-17.2976 -29.4952 0 
8.62779 -48.5518 0 
11.9077 30.3562 0 
10.7756 -29.6332 0 
32.9983 -33.6637 0 
-41.0761 -34.043 0 
-18.6297 -12.1445 0 
-44.4786 -37.8538 0 
-18.4446 -29.033 0 
-0.119156 16.1805 0 
-28.1045 -8.10394 0 
43.6113 -20.0276 0 
53.2775 2.29176 0 
1.91308 60.9288 0 
40.8212 36.0307 0 
31.1418 -34.5102 0 
27.6681 -46.4486 0 
22.0914 -31.9664 0 
-8.15748 -63.3968 0 
28.0688 16.6415 0 
-59.1662 -18.2253 0 
-42.687 -30.7255 0 
52.3932 28.9919 0 
-0.150001 24.5837 0 
32.0736 -47.174 0 
20.4908 -37.3942 0 
-0.123233 3.18439 0 
45.5541 22.2262 0 
43.7336 40.9348 0 
23.3784 9.04846 0 
-48.7933 -18.1698 0 
1.87762 10.7566 0 
25.224 -40.7171 0 
17.4861 21.2473 0 
17.142 -5.20054 0 
-14.0014 -32.8065 0 
-2.35611 -34.6272 0 
-15.4118 25.9316 0 
24.0546 -26.6336 0 
4.75271 37.178 0 
21.8118 57.4442 0 
-8.05978 6.92909 0 
21.2405 -31.1635 0 
-17.2731 -9.11565 0 
16.7126 58.8348 0 
-12.8236 -8.5277 0 
-11.5803 -10.4176 0 
43.3905 -10.4724 0 
8.26437 -21.2308 0 
-13.3349 -39.4202 0 
33.8795 4.20704 0 
-43.997 -25.8561 0 
-4.61718 52.1959 0 
[...]
<CellData Scalars="wall variable 0">
<DataArray type="Float64" Name="wall length" format="ascii">
3.03616 6.83097 1.52349 0.900917 1.00519 2.45128 2.08844 1.6407 3.95385 0.591279 5.13774 1.09871 9.19469 3.41737 6.2933 0.790682 0.94677 5.0116 3.43274 3.41032 8.46902 0.329276 1.21415 2.74718 2.72067 2.30708 0.694574 0.952244 3.36507 0.964746 4.63625 5.13186 0.753791 11.5798 0.836649 2.96356 3.49168 5.95843 0.368588 4.95733 2.66367 1.38462 3.11293 8.26162 3.12917 5.27802 1.72472 2.45954 0.753791 0.489326 4.32574 0.313347 6.71397 3.58533 0.338796 3.064 6.03478 1.41406 1.81621 1.93731 1.77297 0.604675 4.33465 5.29323 1.66671 7.24254 2.25588 1.19484 6.73452 0.890157 1.17168 3.48714 0.644914 5.42252 1.47559 6.92154 1.81732 1.68567 8.44101 0.297995 1.22201 10.0422 0.859539 2.04603 5.08014 4.38398 3.8277 1.86795 2.64481 5.17415 0.669215 2.56056 0.925805 4.87354 0.026765 2.30235 6.58804 0.551574 1.86954 0.680571 8.52885 3.02209 7.381 5.13428 4.26065 0.529271 1.73256 2.43297 0.736508 7.99011 0.278583 8.79381 3.87994 2.93523 1.89546 5.33468 5.11195 0.669215 0.777684 7.94284 0.755944 2.93523 2.95025 2.32622 3.20272 4.27171 4.48494 3.14626 1.48768 2.72051 1.57789 3.06758 3.81571 0.950439 5.94699 1.29147 4.37598 5.06386 2.49251 3.13019 1.5922 3.55589 2.59305 0.802216 4.7714 6.24968 0.37902 3.37403 6.44841 0.385845 1.51607 8.46902 0.935137 8.31738 0.973497 5.99573 1.12686 2.73256 1.17173 9.2076 0.288095 4.03778 7.88353 3.4191 6.62359 4.65398 5.77738 2.98924 9.72998 1.26257 8.62399 0.45215 3.11962 2.52485 2.39949 2.78453 1.06447 0.830703 4.74716 5.29564 0.557609 4.96633 2.52727 6.92399 3.20935 4.20584 4.59582 4.08608 2.65328 3.51641 6.67097 2.23268 0.424503 1.60928 2.32554 1.12255 4.59582 7.67931 2.68685 0.293386 12.6491 0.107507 13.7219 0.654103 0.567627 11.2133 2.1479 0.964724 3.61319 0.026765 0.239652 4.33273 2.18136 0.563295 6.04384 0.182759 6.35255 3.20935 0.769485 3.50107 8.09736 1.93357 6.42442 4.69737 4.84303 1.05614 9.62926 1.16142 0.717543 2.02898 5.19843 3.43176 0.0996861 0.889539 2.78743 6.80841 2.77395 2.2292 5.14131 3.28192 0.367669 1.12548 6.613 1.00519 8.9075 0.493448 2.59941 3.63938 2.80527 0.703443 7.00164 6.05286 4.47789 6.03478 0.147053 7.22653 3.06989 3.39905 6.46911 1.93496 5.86855 9.5572 8.44577 1.92561 5.14131 1.99911 9.28144 4.11321 7.29297 0.92551 5.94886 3.55157 3.81294 1.31018 0.359642 3.21972 1.42532 2.1479 2.88821 1.37703 0.981046 3.048 1.02688 0.313347 4.47789 4.29072 2.39641 4.75547 3.96381 7.24446 2.69381 4.32574 0.895742 2.6891 3.49084 4.08716 2.00875 3.79483 8.65206 7.81424 1.20909 7.1456 6.33008 0.604675 2.73901 0.547499 0.31055 2.64275 1.19233 3.48036 4.85311 11.0912 0.429911 1.7294 2.02653 4.81222 1.3298 1.13273 1.3393 9.2076 1.8507 5.64131 1.63918 0.848435 2.093 8.39624 1.51607 6.6039 0.0558628 6.55475 0.890157 0.112257 0.713686 2.22627 0.329276 0.86549 8.71372 1.13706 0.994923 5.85275 2.0067 1.36561 1.96605 10.9761 0.899598 2.49251 4.98213 4.84744 1.68194 3.14163 0.696725 1.31018 6.90761 7.27301 1.00961 8.34998 1.61146 7.29297 2.90149 0.755944 6.75709 7.64564 0.210713 2.45315 1.89546 0.901946 4.94157 0.957185 4.65433 1.89851 8.90888 0.893584 9.65148 1.78068 7.55538 1.01191 1.91438 3.6786 0.309478 1.72069 3.23917 5.37573 4.54446 0.901232 1.78121 3.58533 2.13342 4.98213 5.06386 0.659887 1.42345 0.563295 4.07132 3.41468 9.02068 1.55716 4.70538 7.01136 0.186966 5.08838 2.02568 3.62045 6.38179 2.01959 0.770979 4.01176 0.456064 2.03162 0.319321 9.11963 1.35072 1.36293 1.87024 9.65148 2.21561 7.14809 1.2925 1.21482 0.74729 7.66202 1.01165 2.55876 5.13186 1.86924 2.78453 1.64688 3.80729 0.423709 3.13314 3.16961 0.354446 0.849328 2.90051 1.21482 6.58366 2.69245 4.36729 1.27309 0.785877 2.04279 7.38708 2.86133 3.04297 1.86795 1.16054 2.76515 6.59177 0.424503 8.00697 1.756 3.6431 3.80921 2.65783 3.72971 1.91438 1.09148 3.30009 1.7813 5.08014 0.215868 8.99758 0.754057 1.64688 2.39949 1.18266 0.182314 0.973497 7.29689 1.66648 1.47559 5.39425 3.30007 7.86516 5.33632 2.30708 2.55876 2.38811 4.36617 0.502248 4.85269 3.02303 3.66866 1.26349 13.7219 3.12162 2.62765 1.93372 0.770247 3.20272 6.61113 2.04424 10.7731 2.0104 10.2341 0.500079 8.12062 2.80238 7.54833 1.12122 1.71881 1.33982 0.860222 11.5012 0.175977 2.0067 6.67747 1.62405 2.72838 0.741169 0.392713 0.338796 1.78121 4.37598 0.461517 3.56284 0.844262 8.67406 0.306255 3.52918 1.00738 3.27401 4.0588 1.43188 10.9997 0.79075 1.11371 3.59057 0.802336 7.92033 4.25476 3.4505 4.72388 3.04989 0.736508 3.23945 1.19784 6.55475 0.74895 3.4191 4.05006 5.4195 1.66671 0.476139 3.23917 3.98199 0.802216 0.826354 2.08214 5.97368 1.39384 8.39624 0.230107 3.68152 2.89124 4.25055 4.33185 8.90888 0.881145 10.7731 0.594105 1.25264 5.94699 4.38646 4.17118 2.02898 1.756 2.7081 0.297995 2.04353 3.41705 2.48476 5.70407 0.713686 8.98798 1.63812 2.32554 2.22553 5.25348 4.28038 1.63812 5.58715 1.19484 0.877995 4.88761 2.28744 3.51641 4.81236 0.552245 2.15726 5.59296 0.735183 0.0484366 0.293386 7.53095 0.298541 3.06907 2.94319 0.706477 3.69936 0.411035 5.11546 1.16253 5.82286 1.63071 3.95241 0.575779 4.33466 0.744967 1.05979 3.32054 2.40907 7.16957 0.556189 6.46892 7.55538 0.888234 3.48714 7.2938 1.01191 7.2938 1.17168 1.87692 5.89281 0.724877 1.09148 6.27393 2.68609 4.72694 6.58804 2.67611 5.5941 0.544786 4.94292 0.493448 2.19454 0.928558 0.851398 3.5902 1.30793 1.79076 6.7363 0.233393 9.54525 4.98846 0.900635 6.27393 2.30235 3.61319 3.35636 2.67675 3.19332 1.12122 3.10292 1.63336 4.48494 3.16961 0.419972 1.46907 2.0763 3.17115 6.85885 0.98122 0.241633 1.43188 1.78988 2.82921 3.02209 1.63732 7.64564 3.1609 6.78675 0.172631 4.00986 0.567627 4.28955 0.578164 5.87584 1.20475 1.19233 0.906918 2.65589 2.98924 2.28254 6.67747 5.85275 9.53185 4.88282 11.0912 0.542084 2.05432 4.36327 0.613063 1.57789 9.98601 1.59301 0.851398 4.97009 5.91638 0.185885 2.36283 4.87362 0.981046 4.49428 5.16444 1.63918 2.34485 1.05614 7.02861 8.9573 2.16903 1.62055 4.52677 3.14626 1.63336 7.60585 3.97766 6.05623 2.38817 5.51288 1.00738 2.68279 5.13034 2.39336 0.746331 10.9539 0.826635 12.8209 1.13273 1.4576 10.5516 0.472724 4.32439 4.71698 0.206822 1.84347 1.308 0.94677 7.26708 1.92218 0.826354 2.59305 0.659696 3.37875 0.60867 1.42291 5.73742 5.09709 1.3885 0.689756 1.01165 0.126644 3.37223 3.33254 3.87572 2.45954 3.46216 1.18026 1.10338 3.30007 1.29283 0.48844 11.5798 5.19843 4.17118 3.67303 0.400018 5.90804 0.955449 5.19616 4.07997 1.16142 4.41446 1.8507 1.39384 2.59405 6.10976 1.12548 1.25105 2.44372 0.696512 4.12927 2.5211 1.51633 0.829278 6.1813 8.71372 2.65589 7.95626 1.99757 1.56281 9.72998 1.62405 9.53185 0.994923 0.93392 0.770979 1.13196 1.15522 2.91314 7.25513 0.423709 9.06947 2.44372 6.42818 0.805089 2.38811 3.92902 6.46769 0.575779 2.63187 4.02169 3.2228 5.17679 3.10766 6.47373 1.24851 7.44933 3.68973 0.467598 7.81424 0.434947 0.844262 3.89756 6.0214 2.08844 3.56613 2.59405 1.27869 1.77117 0.658094 0.356901 6.34458 3.49544 8.23945 0.360585 6.47373 0.442815 3.96381 0.512027 7.88353 2.10138 7.865 2.50857 7.70922 0.79075 7.0261 5.16905 5.61802 0.982617 6.92399 1.09323 4.81222 5.2463 0.729463 0.658881 4.76781 5.39776 5.10686 0.656114 10.0422 0.299614 7.38708 2.16168 0.519431 4.6516 2.94319 2.90051 8.13247 0.659696 3.55589 2.43036 0.74729 2.28254 0.45215 0.334009 3.73603 0.916751 4.21695 1.28609 0.552245 6.58877 4.95733 1.58245 1.39881 7.47637 5.95512 2.96569 4.70891 3.99907 1.17947 5.59296 1.10878 8.9075 0.900917 1.08796 5.17679 0.794295 2.10138 0.882523 5.11202 4.50633 7.95626 0.906918 2.64275 0.112257 6.73452 5.58715 8.98798 3.48186 7.00795 0.658094 0.545409 1.09871 4.31255 2.85305 2.7156 5.89281 1.34466 2.39336 5.60477 0.259846 5.60561 2.22553 1.60928 2.65783 0.980229 4.37304 0.800455 4.12496 0.969197 4.17779 2.81258 5.2872 2.70168 5.86855 3.57073 3.36507 5.10247 0.152519 4.7714 3.98199 1.72069 8.38098 0.416659 0.557989 6.57133 1.81621 2.27131 8.73793 2.11882 5.16444 3.544 1.00961 0.886469 2.31089 2.11335 2.4439 2.59216 2.63823 3.60852 7.65209 1.38462 7.74686 0.689348 0.659887 3.67863 2.72051 1.67125 4.01176 0.93392 1.13706 6.1813 7.5949 0.385845 6.8825 0.726552 4.31645 0.507231 6.6039 5.95843 5.13642 0.957185 0.587438 4.08297 0.895742 0.489326 0.619211 10.9607 0.803383 2.82171 7.64806 1.15522 1.88543 5.93769 1.16292 3.09302 0.877995 2.25588 3.28513 0.753655 1.59663 3.19573 3.20729 3.33254 7.54112 0.542084 4.85311 8.24855 2.42441 1.80302 2.86069 3.27401 5.51288 1.50662 3.41737 4.73895 0.615367 6.54632 3.35581 4.92071 3.94642 5.02633 1.58545 6.90761 3.81294 6.79462 6.36758 3.42106 2.03979 0.688288 9.28144 1.94395 2.7051 0.568815 3.42106 3.21663 4.72388 0.49836 4.20279 0.551574 4.72694 1.16963 3.39905 4.66824 4.15473 1.43284 1.90648 3.17115 1.02462 4.70538 6.35255 1.44022 0.364906 7.67931 4.20584 1.71659 6.89789 2.43549 2.88821 4.25501 3.62045 2.34485 5.64131 4.41446 9.62926 3.66748 2.69245 0.299614 3.06907 2.24316 7.14809 4.85288 0.54029 3.87572 3.20729 1.7856 3.06758 0.185885 0.956111 4.70443 6.42818 1.25105 0.367669 6.13925 0.969197 8.0066 1.81732 2.90082 2.28371 3.60852 1.08173 3.35903 6.58366 1.2925 2.24316 0.298541 2.68379 0.689756 7.31288 4.36729 3.66748 2.21561 2.43036 6.24968 0.152519 0.969487 2.57741 0.126644 7.66202 0.587438 4.94157 6.40978 0.327254 8.96046 0.969487 8.38098 0.309478 3.35015 7.62286 2.37727 0.585934 4.17964 5.25348 5.60561 4.01463 3.82559 1.01242 4.32439 5.50895 5.40818 1.39244 3.32054 1.22021 6.54632 0.174271 5.16654 4.97009 0.928558 2.9268 4.28344 3.064 8.67406 0.434947 8.65206 1.07249 0.147053 1.06948 7.60585 3.10292 7.54833 2.79768 0.68674 2.8042 6.10333 3.12162 2.38691 2.66462 0.0558628 0.507231 10.6418 0.722657 1.43284 1.94926 0.847209 6.62359 0.74895 2.59417 3.78546 1.39881 2.3099 0.660575 6.42442 1.28609 6.5169 0.69798 2.37727 0.259846 4.03217 2.96569 2.15726 1.18841 7.83561 0.836649 0.48844 1.09808 1.93526 8.09646 3.46216 1.72472 5.28045 0.502248 0.107507 8.51142 5.20439 6.59867 5.87584 0.519431 6.84591 3.84055 4.33273 1.66834 4.32833 0.494003 2.59417 1.93357 3.5157 0.248246 8.7915 6.87206 1.36561 0.175977 1.10025 5.10686 4.29178 4.83721 9.11963 1.26207 0.694753 6.14495 8.31679 2.50879 2.77769 10.9761 2.83521 7.26708 0.790682 6.99353 1.95009 1.49957 8.32199 7.52791 4.24138 1.46791 0.035472 4.08876 6.84197 2.66462 1.05862 3.06561 1.68194 1.44022 0.182759 1.63456 1.23862 0.930877 2.42441 1.51875 7.83511 7.33784 5.29564 0.982617 1.56215 5.20786 3.6472 5.20439 0.578164 6.58877 4.81236 0.62951 1.71579 2.28744 0.566669 0.628421 2.70889 1.35161 3.00778 0.651143 6.67097 4.31645 5.09051 1.42291 1.58042 10.6418 2.38992 6.96802 2.89124 0.733942 6.69829 3.85947 1.79076 0.855809 3.9771 6.5155 0.303419 2.08729 2.38992 0.901068 4.14503 3.66374 5.5941 2.45214 5.50895 0.472724 2.83521 6.14143 1.27547 0.245882 1.02382 0.304269 7.24446 0.442815 3.10766 1.08796 1.52349 6.46291 4.03217 4.37304 5.35218 4.70891 0.718006 4.68088 0.956111 5.91638 5.16654 0.552209 2.38691 6.61113 2.32622 4.57297 2.64481 0.509248 0.0590542 1.05862 3.68232 4.22502 2.72067 2.50342 2.66605 0.916751 1.82203 6.2887 1.36293 0.693578 0.958731 0.119542 0.826635 2.65298 1.93526 4.25476 1.04018 3.30009 0.724877 2.7156 0.574421 7.0261 2.3972 4.29178 5.39776 2.51492 3.00778 5.13774 5.407 2.81966 4.31255 4.0588 4.73895 3.43274 3.25795 1.78988 0.791839 4.33465 6.33008 0.704137 1.71881 3.19332 0.804258 3.41468 2.08729 4.24153 0.955449 4.25055 6.96802 3.50089 1.38246 2.30132 4.53245 1.19784 4.13652 3.544 4.49428 1.37703 2.43549 0.450367 8.34998 0.364906 7.83511 0.90943 0.62951 7.53095 2.68685 6.53161 4.54446 1.70201 3.68232 3.73603 5.69291 0.693578 1.35072 4.83721 1.12022 5.73987 0.103045 8.41863 1.71659 2.02568 4.58775 3.48186 2.44749 0.278583 1.44213 7.89105 2.78317 0.91257 1.38246 10.6438 1.09808 1.29283 5.39425 5.42252 5.04897 1.82203 0.411035 4.88506 3.55338 1.36484 0.802336 0.896556 5.58622 5.09914 4.13652 3.23945 2.43297 1.85403 1.27547 0.657277 1.20834 0.594105 2.04424 2.35422 2.98188 1.3691 7.84285 4.62383 0.474807 6.65484 1.56225 5.11824 3.31803 5.10166 0.964746 3.57073 1.93496 1.05944 0.248246 1.02063 3.67303 4.38646 0.950439 4.07619 5.11202 0.31055 3.81256 2.85883 4.85269 5.28045 5.27802 2.68379 5.11546 5.58622 4.47898 5.79568 0.172631 1.53668 2.03979 0.568815 0.793662 6.79462 3.55157 3.35636 6.04384 1.42345 0.689348 1.70769 1.43015 1.00973 0.557989 4.78381 4.85288 4.68088 2.89161 1.25557 6.59177 0.502009 5.10247 0.952244 4.11231 1.02688 0.476839 4.08876 4.84744 2.13342 6.71397 5.14593 5.11824 3.11207 1.80302 0.930877 6.8825 6.44841 4.79001 2.08214 1.92218 5.94582 2.93767 8.79381 2.44749 2.85305 2.81966 4.03995 5.13428 2.22153 1.84347 8.63369 5.35218 0.980229 3.80921 0.721242 9.61827 3.99907 1.73694 7.13328 2.01502 7.63501 2.27097 3.39391 7.62707 2.91314 7.64806 0.827136 1.16403 0.400018 3.81256 0.547499 4.88282 7.46656 0.103045 7.99011 3.04989 3.21663 6.36758 1.99911 0.717552 1.26257 1.56281 1.33969 1.59663 0.71561 3.35015 3.6786 4.25642 4.82857 0.657277 6.14143 1.49957 5.22951 6.12236 0.800455 2.05821 2.04353 8.44101 3.00158 7.44072 0.359642 0.696725 6.91199 1.41115 0.163321 4.57297 2.95025 3.87994 5.17415 1.06896 1.44213 1.20494 3.22594 3.95385 1.61552 5.93769 1.63456 8.09736 3.43379 7.05602 1.23862 7.05602 1.31361 4.14058 4.62383 5.14593 4.74326 4.74716 7.35144 0.855809 1.30793 4.05006 5.77738 0.56661 8.5502 1.48498 0.808216 5.75616 2.31089 2.45474 3.1609 3.20159 5.20786 5.94787 1.13028 0.333704 5.69106 5.20437 4.66824 3.06989 2.70168 0.502009 2.76515 3.35581 1.22021 6.46892 0.15708 0.538304 2.30132 0.91257 2.82236 0.658073 1.09323 2.52727 7.67534 4.54824 1.18841 2.85974 1.4576 1.3298 0.977929 3.11962 4.74326 3.5902 0.692836 1.59558 7.52791 1.36413 6.11603 3.89925 1.02391 4.39354 1.7577 5.4195 1.48498 1.14519 3.28513 7.24254 0.692836 9.54525 2.19489 2.57839 2.16231 7.00617 1.01844 3.49168 3.3806 1.45499 4.65433 5.13642 1.76209 3.9771 7.35144 0.830703 5.29411 3.31803 0.540872 7.86516 1.10338 8.08605 2.94438 0.661477 7.27301 1.58545 3.1966 7.16957 0.0590542 9.55166 3.10741 8.31679 1.96605 3.06561 0.509248 4.87354 1.10894 5.82163 9.55166 0.718006 9.58142 1.93731 6.57133 2.89161 0.680166 10.9997 0.241633 3.15088 9.31857 1.40364 4.96633 1.40161 2.0104 0.881145 1.89851 1.45499 0.68571 7.67534 2.27732 9.12694 1.18266 2.52485 0.977929 8.32199 0.286907 5.29411 1.06447 1.86924 4.63625 5.10166 2.44606 12.6491 0.0484366 2.46241 9.5572 2.2292 1.20494 10.6438 3.50089 5.09914 2.24513 0.71561 7.54112 3.37223 2.57741 7.62286 9.31857 0.919138 0.777684 0.770247 3.75091 0.808216 6.77403 2.12846 0.886803 2.01502 4.91293 2.82236 2.78317 6.24267 0.832685 5.32358 3.02303 2.85883 3.12917 2.69381 2.40533 7.46656 0.613063 0.629556 1.47037 3.92902 2.57633 1.50391 5.2463 2.02653 5.0463 4.98833 2.19454 7.00164 5.64115 2.9268 3.80729 0.754057 6.24954 0.696512 9.06947 4.47898 0.896556 3.59057 5.00917 0.419972 3.13314 3.35903 4.29266 7.29689 8.31738 0.506619 9.42619 0.0996861 4.42297 2.57633 4.02169 0.476839 3.048 4.87362 0.956997 2.8042 6.84197 4.12496 6.12236 1.68567 8.0066 1.73694 4.2189 5.08838 0.312795 0.0346943 3.94642 2.04682 1.35161 8.53712 2.5211 0.86549 6.87206 2.3972 2.45474 0.886469 2.90149 4.11321 0.688288 1.53668 6.78675 1.824 3.92434 5.00699 7.44933 3.6165 3.68973 5.00699 0.624364 10.9607 1.29147 1.25264 0.717543 4.07997 4.15693 9.98601 3.62711 0.306255 0.680166 3.20892 3.66866 5.32358 4.98838 0.554229 4.36617 0.805089 4.70443 1.39153 1.03893 0.811575 8.55744 0.187043 3.89925 2.72397 1.87317 2.19489 0.233393 2.05432 2.86069 3.11207 1.56225 1.81309 6.23456 2.0763 8.75681 0.260432 2.68279 1.63145 7.01136 1.02462 5.94582 5.73742 5.09051 0.726552 1.40364 6.77403 3.20159 4.28955 0.654103 1.26349 3.20892 0.245882 7.84285 5.37007 1.13533 4.55098 0.538304 8.31816 1.94395 3.4505 4.53245 5.62017 6.91199 3.14163 0.661477 2.40907 1.39244 4.21695 2.66605 5.3291 6.5169 4.28344 5.64115 0.703443 2.18067 1.20909 6.60851 6.7363 3.85947 0.431599 4.69737 0.660575 5.68557 0.811575 4.54824 0.68571 3.3806 2.96356 7.83561 0.119542 2.53419 2.44847 2.50857 2.63124 0.288095 1.3393 12.8209 1.47179 7.22653 1.07249 3.79483 5.91485 3.48036 1.20475 6.59867 1.71579 0.90943 1.51875 8.24855 4.58775 2.03162 3.65631 0.356901 7.00795 2.44847 9.07102 1.45274 0.882523 7.70922 8.5502 4.90246 2.12846 4.23797 0.753655 1.14519 2.82921 3.25795 5.0116 1.308 2.22153 7.381 3.52979 0.790518 7.02861 0.889539 9.42619 5.16905 0.574421 5.60477 5.13034 0.260432 0.417092 3.56613 2.45128 6.613 6.10976 3.6472 5.69106 3.02517 1.24132 2.98188 0.959846 2.35422 10.2341 1.40161 0.557609 7.33784 0.959846 2.48476 1.33006 3.44306 0.384521 0.821923 2.80314 0.847021 0.309453 6.80841 0.814606 1.21415 2.22627 4.28038 4.17964 7.80063 1.12022 6.14495 5.21451 0.706776 3.10826 2.55857 1.25214 7.9415 2.57022 3.63938 2.54448 1.04018 7.92033 1.36484 0.513439 2.52172 4.38398 1.7813 2.20332 3.49084 5.20174 1.3282 0.27018 6.05623 1.43177 5.31245 3.1408 0.500079 1.18712 7.9415 0.833184 5.22992 5.99573 0.182314 9.12694 3.75762 3.49302 5.09709 0.54029 4.78381 0.416659 1.16663 7.65209 2.28371 7.44732 0.860222 1.52853 8.62399 4.25642 0.901232 6.53161 0.334009 1.61552 9.19469 0.545409 1.77117 2.01563 6.36747 1.16292 3.75762 8.73793 1.98253 0.785877 4.6126 1.05315 5.91485 2.00875 0.467598 3.6165 0.619211 1.13196 2.01959 4.07619 3.81571 1.7856 3.19573 1.33969 1.99757 4.50633 2.27097 2.31866 1.94926 4.15473 1.55716 4.2189 4.4158 5.22951 1.95009 1.89015 1.3282 0.692988 0.327254 3.43462 0.622833 0.210713 1.63732 0.529271 3.26198 1.51681 5.05314 1.60492 8.7915 1.05944 6.46911 1.16963 2.68609 0.900635 4.08297 8.96046 0.692988 5.20174 2.6891 1.3885 3.49302 4.6126 1.27309 7.31288 2.85974 8.09646 2.65298 10.5516 5.68557 2.3099 1.58245 0.368588 1.30348 8.55744 3.84055 0.857516 5.29323 0.791839 4.07132 2.18136 4.94292 3.79289 3.5548 2.54448 2.59941 2.04682 4.92071 0.658073 4.91293 7.13328 0.354446 6.85885 1.90648 0.722657 1.58042 0.60867 7.14754 1.30348 8.26162 2.96615 0.716073 4.3409 1.02391 0.187043 6.40978 0.901946 4.33185 1.20834 4.82857 4.4158 1.00973 8.18603 4.32833 1.60492 4.98846 2.52172 6.47327 0.49836 5.20437 1.16054 3.8277 4.36327 6.23456 0.869646 0.744967 6.09275 0.629556 4.25501 4.29072 6.05286 1.47179 1.05315 6.38179 0.456064 7.5949 0.829278 1.27663 6.34458 3.65631 2.53419 0.958731 5.69291 3.5205 0.603207 9.07102 4.00986 5.79568 5.94886 11.2133 2.74718 7.80063 0.585934 0.69798 5.3291 2.50342 0.794295 3.2228 0.360585 4.03778 2.63124 7.865 2.05821 5.2872 5.67071 1.33006 3.41705 0.591279 3.22594 2.24513 1.85403 1.73256 2.93767 5.407 0.706776 0.967149 4.11231 0.694574 5.33632 0.554229 4.78353 3.32282 0.687749 2.72838 7.25513 7.62707 1.46907 5.00917 1.11371 5.61802 0.417092 8.75681 3.69936 3.06444 0.680571 4.88807 4.88506 3.43176 5.90804 1.16403 2.40533 4.42297 0.651143 2.51492 4.76781 1.22201 2.7081 8.00697 2.23268 1.39153 6.13925 3.28192 1.10878 1.45274 0.603207 2.59308 2.83771 2.94438 0.378205 3.21972 7.44072 2.70889 3.48152 3.49544 1.27663 1.51633 8.53712 2.18067 2.80527 2.57022 1.18712 1.33982 0.704137 7.1456 1.23628 2.96615 3.11293 1.67125 1.48768 4.52677 6.55519 0.513439 3.55338 4.88807 1.86954 4.20279 6.47327 1.17947 9.61827 3.25616 8.44577 2.46241 0.735183 0.694753 6.27961 2.86133 1.25557 0.967149 5.21451 4.23797 6.24267 7.89105 1.06896 1.88543 2.66367 5.95512 0.90082 1.70769 7.74686 3.6431 5.70407 0.814606 2.78743 1.92561 3.25616 0.721242 1.87692 6.92154 1.66648 0.540872 2.83771 3.00158 0.883386 0.746331 1.34466 3.5205 5.73987 2.55857 4.77589 1.03893 2.59308 0.832685 4.08716 2.20332 3.97766 3.52918 3.62711 1.50662 2.38817 0.27018 1.89015 6.99353 6.2933 0.239652 8.52885 3.06444 0.706477 4.6516 1.66834 0.690631 1.27869 4.12927 6.24954 8.99758 0.906291 0.849328 7.14754 3.37875 8.13247 4.88761 3.09302 6.36747 8.68719 0.566669 2.01563 8.23945 3.48152 0.628421 8.68719 3.56525 5.97368 4.79001 3.37403 0.0346943 10.5583 1.41115 5.62017 5.40818 0.615367 4.24153 0.303419 2.67611 1.59301 4.15693 5.19616 7.44732 2.90082 0.859539 0.656114 1.10025 11.5012 0.431599 6.5155 1.76209 1.02063 3.5157 4.84303 0.56661 4.65398 0.847209 2.31866 7.63501 0.886803 4.90246 1.43015 0.90082 7.47637 3.78546 0.494003 8.18603 1.70201 5.37573 0.476139 3.56525 0.37902 3.41032 4.22502 5.04897 0.644914 0.888234 1.78068 1.87024 6.2887 0.91913