<VTKFile type="UnstructuredGrid" version="0.1">
<UnstructuredGrid>
<Piece  NumberOfPoints="    2486" NumberOfCells="     416">
<Points>
<DataArray type="Float64" NumberOfComponents="3" format="ascii">
24.4722 -23.1319 0.0
23.7996 -23.4734 0.0
28.026 -26.8079 0.0
28.9983 -25.527 0.0
29.0835 -21.3242 0.0
33.6125 -36.0541 0.0
33.5154 -35.5059 0.0
28.0402 -35.135 0.0
27.3534 -35.6953 0.0
24.4114 -40.9122 0.0
-20.9197 48.603 0.0
-23.6164 48.7805 0.0
-25.068 48.6429 0.0
-26.4535 47.5817 0.0
-23.9103 43.1005 0.0
-21.3452 43.3795 0.0
0.18421 12.26 0.0
-1.25395 13.6714 0.0
-8.58784 8.18189 0.0
-8.04199 6.54828 0.0
-7.86636 6.28217 0.0
41.8453 -6.48265 0.0
42.8831 -5.77818 0.0
40.9255 -0.986737 0.0
37.3434 -5.18657 0.0
38.4108 -7.36942 0.0
45.9674 -0.277731 0.0
44.7547 -5.38649 0.0
48.6969 -8.65649 0.0
51.0805 -5.2313 0.0
49.1919 -3.39797 0.0
49.2679 32.0868 0.0
49.4168 32.4766 0.0
45.605 36.5423 0.0
44.3087 36.3868 0.0
43.4771 33.5438 0.0
44.2444 32.2789 0.0
47.5482 30.7881 0.0
10.2932 -14.9944 0.0
13.896 -9.67887 0.0
12.8316 -7.92211 0.0
6.66618 -10.1419 0.0
9.15513 -13.6297 0.0
-23.8458 -48.9756 0.0
-21.8759 -51.7213 0.0
-20.8996 -52.8809 0.0
-17.496 -48.7029 0.0
-20.8565 -45.5139 0.0
-42.4458 35.0482 0.0
-42.4229 34.5815 0.0
-41.4626 33.9454 0.0
-37.1213 31.5563 0.0
-36.4443 31.9339 0.0
-33.2684 35.7326 0.0
-43.9068 -9.7084 0.0
-41.5659 -10.1873 0.0
-36.0155 -5.53286 0.0
-36.1541 -5.34325 0.0
-44.469 -7.3965 0.0
-28.3585 -11.7973 0.0
-33.9885 -9.88592 0.0
-34.8218 -10.9301 0.0
-34.5293 -15.3662 0.0
-33.6149 -16.0375 0.0
-31.5797 -16.8667 0.0
-31.9118 46.8304 0.0
-33.0018 49.9878 0.0
-39.4589 46.8285 0.0
-38.4857 44.4805 0.0
-35.4475 44.9845 0.0
-33.0659 45.5429 0.0
-5.78666 -4.85258 0.0
-6.20894 -4.71832 0.0
-7.8172 -5.10576 0.0
-8.9534 -9.68603 0.0
-5.43032 -11.1625 0.0
-4.25894 -10.3814 0.0
53.7501 7.5618 0.0
53.3826 3.96307 0.0
58.9762 4.43049 0.0
59.5953 8.55397 0.0
58.8604 8.91855 0.0
54.9739 8.56489 0.0
-50.2346 -19.8446 0.0
-48.6218 -22.4769 0.0
-47.3622 -22.4678 0.0
-43.1681 -18.3453 0.0
-44.4806 -15.5293 0.0
-13.3399 33.7235 0.0
-12.9942 36.1396 0.0
-14.6511 37.5339 0.0
-15.5036 38.1348 0.0
-17.0992 38.1681 0.0
-17.6273 38.1264 0.0
-19.3012 36.6903 0.0
-20.503 33.1938 0.0
-54.0708 28.4715 0.0
-56.819 25.0094 0.0
-54.3966 19.5752 0.0
-52.1769 26.5671 0.0
-53.6482 28.4463 0.0
24.8503 -9.69531 0.0
28.7844 -9.11741 0.0
30.6297 -5.48624 0.0
28.2706 -2.85772 0.0
27.8043 -2.75544 0.0
23.5444 31.4158 0.0
26.6389 33.207 0.0
25.2728 36.3095 0.0
23.0873 36.9724 0.0
18.5179 36.6978 0.0
49.5857 -3.07027 0.0
51.4743 -4.9036 0.0
52.2667 -4.54882 0.0
52.477 -4.26229 0.0
53.4753 -1.21471 0.0
52.2766 1.87061 0.0
50.9159 2.07909 0.0
-14.1226 10.7873 0.0
-12.6483 10.795 0.0
-9.17752 16.6635 0.0
-9.37327 17.0463 0.0
-10.8204 17.3061 0.0
-12.9061 17.4021 0.0
-15.6697 13.2467 0.0
-15.7063 11.8305 0.0
19.5167 22.3391 0.0
20.6464 21.056 0.0
26.0935 24.9226 0.0
25.8079 25.6751 0.0
22.4144 27.1857 0.0
24.5845 14.5123 0.0
27.2143 13.5026 0.0
29.701 15.2127 0.0
30.1388 18.8483 0.0
30.0252 19.6502 0.0
28.6178 20.4873 0.0
27.968 20.2568 0.0
-37.3155 31.129 0.0
-41.6569 33.5181 0.0
-40.7687 26.7006 0.0
-39.2373 25.8135 0.0
-30.3594 14.1033 0.0
-32.4566 13.5396 0.0
-33.0887 10.9289 0.0
-31.5825 9.05892 0.0
-25.9805 9.08312 0.0
-27.7381 21.0001 0.0
-28.7126 22.4615 0.0
-34.3028 18.7261 0.0
-34.1521 17.4306 0.0
-32.5447 14.2489 0.0
-30.4475 14.8126 0.0
-30.2048 14.9552 0.0
-49.7894 13.8279 0.0
-50.1302 13.4888 0.0
-49.0976 8.34098 0.0
-48.2974 7.0154 0.0
-44.7116 8.70621 0.0
44.2662 -12.7192 0.0
43.3542 -12.4435 0.0
37.8448 -13.3752 0.0
37.6331 -13.8195 0.0
37.1838 -16.8013 0.0
39.129 -17.7361 0.0
18.8306 -35.8316 0.0
19.7875 -35.6641 0.0
26.097 -30.9022 0.0
26.0493 -30.4545 0.0
25.7279 -29.9928 0.0
23.7968 -29.8094 0.0
18.3769 -32.8821 0.0
18.4583 -35.0767 0.0
-35.9803 -1.29773 0.0
-32.8574 0.379088 0.0
-36.5722 6.89745 0.0
-38.9515 5.76851 0.0
-38.6839 0.358763 0.0
6.9368 28.1513 0.0
3.20968 29.7736 0.0
2.05648 29.1862 0.0
-2.61871 25.2049 0.0
-1.11371 23.8792 0.0
-0.0261422 24.2027 0.0
8.03068 18.0145 0.0
6.81655 18.2699 0.0
1.94768 12.496 0.0
2.21615 12.2917 0.0
5.82131 11.9413 0.0
7.93527 14.705 0.0
8.55579 16.7793 0.0
-49.4523 7.95919 0.0
-52.9564 8.59384 0.0
-53.9865 4.47307 0.0
-53.2551 4.05025 0.0
-50.6372 3.87504 0.0
-50.2439 4.20585 0.0
-48.7427 6.24688 0.0
-48.652 6.63361 0.0
-21.0065 -31.1416 0.0
-19.7833 -29.684 0.0
-21.3067 -22.3584 0.0
-21.7735 -21.9368 0.0
-22.5589 -21.881 0.0
-24.922 -24.6353 0.0
-25.703 -25.9667 0.0
26.1827 39.6415 0.0
26.0117 40.1083 0.0
18.4593 41.2511 0.0
23.1008 37.4256 0.0
25.2863 36.7628 0.0
26.1329 38.6269 0.0
-7.49261 29.7494 0.0
-6.99027 26.5089 0.0
-5.14551 25.4447 0.0
-4.47809 25.365 0.0
-3.18681 25.2944 0.0
1.48839 29.2757 0.0
-3.0444 -47.1875 0.0
-0.426722 -45.6495 0.0
1.35475 -43.9488 0.0
-0.354192 -42.3382 0.0
-4.03979 -38.8651 0.0
-4.78622 -39.0886 0.0
-4.76861 -43.446 0.0
-4.67758 -46.6974 0.0
-4.43718 -46.8899 0.0
-40.7056 -19.7493 0.0
-42.8984 -18.6017 0.0
-47.0924 -22.7242 0.0
-45.2326 -24.7228 0.0
-44.4448 -25.3568 0.0
55.9609 17.1606 0.0
55.4319 17.2933 0.0
51.2527 11.039 0.0
53.4882 8.1469 0.0
54.7119 9.14999 0.0
33.2995 22.0666 0.0
36.2402 23.5079 0.0
33.7275 27.5841 0.0
29.8413 26.4193 0.0
-17.6003 -58.5451 0.0
-14.2732 -58.6774 0.0
-16.0515 -54.667 0.0
-20.0186 -54.9569 0.0
-20.4722 -56.1104 0.0
-18.8207 -57.832 0.0
-27.6577 -53.8925 0.0
-27.296 -54.2209 0.0
-23.971 -56.0341 0.0
-21.0901 -55.8746 0.0
-20.6365 -54.7211 0.0
-21.1785 -53.4005 0.0
-22.1548 -52.2408 0.0
-36.7106 7.54503 0.0
-34.1823 10.4321 0.0
-38.6011 11.1694 0.0
-40.9269 7.94005 0.0
-39.0899 6.41609 0.0
19.2535 -43.6453 0.0
13.9693 -46.3308 0.0
13.308 -46.954 0.0
15.6466 -51.9255 0.0
17.2208 -51.7429 0.0
-15.9823 -48.6173 0.0
-13.3786 -50.7432 0.0
-9.57873 -47.3336 0.0
-9.25715 -46.8092 0.0
-10.3916 -45.4299 0.0
-13.8866 -43.8927 0.0
-36.2105 38.9307 0.0
-32.3005 38.1817 0.0
-31.9788 42.4132 0.0
-32.916 44.9964 0.0
-35.2976 44.4379 0.0
21.6727 29.3237 0.0
16.7478 32.1008 0.0
16.1086 27.5852 0.0
16.8475 27.5413 0.0
21.7786 28.0629 0.0
-9.81537 45.1428 0.0
-8.0071 45.0493 0.0
-3.92638 47.8043 0.0
-3.96613 48.4832 0.0
-10.2581 49.7688 0.0
15.4936 -15.8239 0.0
16.3734 -11.1118 0.0
14.2398 -9.91482 0.0
10.637 -15.2303 0.0
10.6529 -15.5929 0.0
20.7093 9.49231 0.0
22.7176 5.70688 0.0
27.1135 9.504 0.0
26.8504 11.3119 0.0
-36.1768 -3.77281 0.0
-36.2934 -1.76563 0.0
-38.9971 -0.109133 0.0
-42.1625 -1.08943 0.0
-43.7559 -3.258 0.0
5.36627 -39.3288 0.0
5.78633 -38.8592 0.0
4.21827 -33.8068 0.0
-0.275941 -34.9549 0.0
-1.12123 -36.09 0.0
-1.13513 -36.2635 0.0
2.60055 -38.1254 0.0
-12.5372 33.8445 0.0
-12.1524 32.8925 0.0
-3.9255 38.1087 0.0
-3.56675 38.6964 0.0
-6.48587 39.8216 0.0
-12.1915 36.2607 0.0
-18.5416 16.3115 0.0
-19.5309 19.1081 0.0
-20.1682 20.0594 0.0
-21.2874 20.0386 0.0
-22.9702 18.6144 0.0
-24.1281 15.1009 0.0
-23.0663 13.0868 0.0
-28.3309 -40.319 0.0
-26.7949 -40.3489 0.0
-27.3307 -34.4258 0.0
-30.8771 -34.8127 0.0
-30.9475 -36.5801 0.0
15.397 14.7599 0.0
14.8052 14.9314 0.0
12.2101 11.6741 0.0
15.3402 9.08589 0.0
17.8667 11.7304 0.0
15.9671 14.2775 0.0
0.815213 -50.8435 0.0
1.3818 -54.2795 0.0
7.86021 -50.2949 0.0
8.18895 -49.626 0.0
8.20558 -48.4052 0.0
7.00249 -48.5226 0.0
11.4252 -3.10717 0.0
6.5658 -1.64702 0.0
5.25141 -5.57146 0.0
5.40356 -7.83082 0.0
15.4358 -2.21074 0.0
19.6804 -4.79887 0.0
20.0152 0.950193 0.0
19.1056 1.15993 0.0
17.1292 1.0553 0.0
21.3818 -10.5919 0.0
23.8692 -10.0959 0.0
24.4566 -9.69243 0.0
27.4105 -2.75256 0.0
27.1062 -2.51531 0.0
24.6401 -2.71131 0.0
21.7588 -6.38035 0.0
21.5275 -7.09425 0.0
20.8846 -10.1056 0.0
25.781 40.4253 0.0
25.6206 41.1328 0.0
23.3711 43.3069 0.0
17.1873 44.172 0.0
16.1274 43.2145 0.0
18.2286 41.5681 0.0
14.0148 -45.7386 0.0
19.299 -43.0531 0.0
20.309 -42.1722 0.0
18.065 -38.2322 0.0
14.49 -40.4851 0.0
-1.33824 13.9007 0.0
-2.0769 14.8445 0.0
-3.21228 15.2702 0.0
-5.18299 14.6689 0.0
-9.05683 9.37161 0.0
-8.67212 8.41114 0.0
40.2638 43.7795 0.0
37.6834 39.7896 0.0
43.4827 38.0646 0.0
42.7865 42.0679 0.0
41.4854 43.1849 0.0
-21.4308 -2.34969 0.0
-21.1703 -1.7432 0.0
-21.8235 -0.0553094 0.0
-24.7376 3.23648 0.0
-29.6712 1.38833 0.0
-30.2718 0.289451 0.0
-30.1119 0.106461 0.0
-28.5501 -1.41433 0.0
-3.2811 2.90313 0.0
-4.69866 2.74005 0.0
-5.86923 -4.00916 0.0
-5.44695 -4.14342 0.0
-2.01314 -4.38672 0.0
-0.804398 -2.40351 0.0
-0.316924 -0.57833 0.0
-2.19283 2.3046 0.0
18.2943 11.1155 0.0
18.088 11.1446 0.0
15.5616 8.50016 0.0
15.1256 7.43535 0.0
16.6863 2.48567 0.0
17.0454 1.8148 0.0
19.0217 1.91943 0.0
-14.9524 38.7649 0.0
-14.1 38.164 0.0
-7.55607 42.9671 0.0
-8.34927 44.4829 0.0
-10.1575 44.5764 0.0
-10.7176 44.4862 0.0
-15.7805 -33.9486 0.0
-15.2892 -33.3409 0.0
-12.3549 -29.4269 0.0
-14.3132 -27.9996 0.0
-17.9508 -29.7392 0.0
31.2616 49.0869 0.0
26.8609 46.4048 0.0
31.024 43.1907 0.0
31.1836 43.2514 0.0
32.43 47.5649 0.0
-13.0103 30.9334 0.0
-16.4687 28.3242 0.0
-16.0583 25.2108 0.0
-12.8975 24.1764 0.0
-11.9388 24.8753 0.0
28.785 -2.3979 0.0
31.1442 -5.02641 0.0
35.0679 -4.44116 0.0
35.4996 -4.27725 0.0
35.8676 2.40677 0.0
32.5168 0.135304 0.0
8.65607 -49.929 0.0
8.32733 -50.5979 0.0
5.7374 -56.7392 0.0
6.21953 -57.0237 0.0
12.1775 -55.172 0.0
12.3852 -54.8253 0.0
-7.62328 44.7871 0.0
-6.83009 43.2713 0.0
-6.21397 42.4358 0.0
0.567714 44.4127 0.0
0.557678 44.7712 0.0
-3.54256 47.5421 0.0
-23.207 28.3392 0.0
-23.0496 27.5709 0.0
-21.2189 20.7559 0.0
-20.0997 20.7767 0.0
-18.1284 23.3548 0.0
-35.7493 -37.7942 0.0
-31.5938 -36.3823 0.0
-31.5233 -34.6149 0.0
-32.4513 -33.4569 0.0
-33.6849 -31.9241 0.0
-37.1924 -32.4361 0.0
-37.3935 -33.0653 0.0
-38.5356 -38.7346 0.0
1.53955 44.1607 0.0
8.77083 40.7758 0.0
6.82143 45.1293 0.0
3.89388 46.0748 0.0
1.46158 44.6686 0.0
1.47161 44.31 0.0
-0.0909787 53.276 0.0
2.97551 56.7309 0.0
3.27047 57.8259 0.0
-3.23764 59.3816 0.0
-3.73988 59.1779 0.0
-2.6494 54.498 0.0
-0.958277 53.1136 0.0
49.1554 -10.0642 0.0
48.4741 -12.4583 0.0
51.4022 -18.0908 0.0
52.1876 -18.0537 0.0
56.5016 -15.8059 0.0
55.8537 -14.842 0.0
[...]
<CellData Scalars="cell variable 4" Vectors="cell vector">
<DataArray type="Float64" NumberOfComponents="3" Name="cell vector" format="ascii">
0 0 0
0 0 0
0 0 0
0 0 0
0 0 0
0 0 0
0 0 0
0 0 0
0 0 0
0 0 0
0 0 0
0 0 0
0 0 0
0 0 0
0 0 0
0 0 0
0 0 0
0 0 0
0 0 0
0 0 0
0 0 0
0 0 0
0 0 0
0 0 0
0 0 0
0 0 0
0 0 0
0 0 0
0 0 0
0 0 0
0 0 0
0 0 0
0 0 0
0 0 0
0 0 0
0 0 0
0 0 0
0 0 0
0 0 0
0 0 0
0 0 0
0 0 0
0 0 0
0 0 0
0 0 0
0 0 0
0 0 0
0 0 0
0 0 0
0 0 0
0 0 0
0 0 0
0 0 0
0 0 0
0 0 0
0 0 0
0 0 0
0 0 0
0 0 0
0 0 0
0 0 0
0 0 0
0 0 0
0 0 0
0 0 0
0 0 0
0 0 0
0 0 0
0 0 0
0 0 0
0 0 0
0 0 0
0 0 0
0 0 0
0 0 0
0 0 0
0 0 0
0 0 0
0 0 0
0 0 0
0 0 0
0 0 0
0 0 0
0 0 0
0 0 0
0 0 0
0 0 0
0 0 0
0 0 0
0 0 0
0 0 0
0 0 0
0 0 0
0 0 0
0 0 0
0 0 0
0 0 0
0 0 0
0 0 0
0 0 0
0 0 0
0 0 0
0 0 0
0 0 0
0 0 0
0 0 0
0 0 0
0 0 0
0 0 0
0 0 0
0 0 0
0 0 0
0 0 0
0 0 0
0 0 0
0 0 0
0 0 0
0 0 0
0 0 0
0 0 0
0 0 0
0 0 0
0 0 0
0 0 0
0 0 0
0 0 0
0 0 0
0 0 0
0 0 0
0 0 0
0 0 0
0 0 0
0 0 0
0 0 0
0 0 0
0 0 0
0 0 0
0 0 0
0 0 0
0 0 0
0 0 0
0 0 0
0 0 0
0 0 0
0 0 0
0 0 0
0 0 0
0 0 0
0 0 0
0 0 0
0 0 0
0 0 0
0 0 0
0 0 0
0 0 0
0 0 0
0 0 0
0 0 0
0 0 0
0 0 0
0 0 0
0 0 0
0 0 0
0 0 0
0 0 0
0 0 0
0 0 0
0 0 0
0 0 0
0 0 0
0 0 0
0 0 0
0 0 0
0 0 0
0 0 0
0 0 0
0 0 0
0 0 0
0 0 0
0 0 0
0 0 0
0 0 0
0 0 0
0 0 0
0 0 0
0 0 0
0 0 0
0 0 0
0 0 0
0 0 0
0 0 0
0 0 0
0 0 0
0 0 0
0 0 0
0 0 0
0 0 0
0 0 0
0 0 0
0 0 0
0 0 0
0 0 0
0 0 0
0 0 0
0 0 0
0 0 0
0 0 0
0 0 0
0 0 0
0 0 0
0 0 0
0 0 0
0 0 0
0 0 0
0 0 0
0 0 0
0 0 0
0 0 0
0 0 0
0 0 0
0 0 0
0 0 0
0 0 0
0 0 0
0 0 0
0 0 0
0 0 0
0 0 0
0 0 0
0 0 0
0 0 0
0 0 0
0 0 0
0 0 0
0 0 0
0 0 0
0 0 0
0 0 0
0 0 0
0 0 0
0 0 0
0 0 0
0 0 0
0 0 0
0 0 0
0 0 0
0 0 0
0 0 0
0 0 0
0 0 0
0 0 0
0 0 0
0 0 0
0 0 0
0 0 0
0 0 0
0 0 0
0 0 0
0 0 0
0 0 0
0 0 0
0 0 0
0 0 0
0 0 0
0 0 0
0 0 0
0 0 0
0 0 0
0 0 0
0 0 0
0 0 0
0 0 0
0 0 0
0 0 0
0 0 0
0 0 0
0 0 0
0 0 0
0 0 0
0 0 0
0 0 0
0 0 0
0 0 0
0 0 0
0 0 0
0 0 0
0 0 0
0 0 0
0 0 0
0 0 0
0 0 0
0 0 0
0 0 0
0 0 0
0 0 0
0 0 0
0 0 0
0 0 0
0 0 0
0 0 0
0 0 0
0 0 0
0 0 0
0 0 0
0 0 0
0 0 0
0 0 0
0 0 0
0 0 0
0 0 0
0 0 0
0 0 0
0 0 0
0 0 0
0 0 0
0 0 0
0 0 0
0 0 0
0 0 0
0 0 0
0 0 0
0 0 0
0 0 0
0 0 0
0 0 0
0 0 0
0 0 0
0 0 0
0 0 0
0 0 0
0 0 0
0 0 0
0 0 0
0 0 0
0 0 0
0 0 0
0 0 0
0 0 0
0 0 0
0 0 0
0 0 0
0 0 0
0 0 0
0 0 0
0 0 0
0 0 0
0 0 0
0 0 0
0 0 0
0 0 0
0 0 0
0 0 0
0 0 0
0 0 0
0 0 0
0 0 0
0 0 0
0 0 0
0 0 0
0 0 0
0 0 0
0 0 0
0 0 0
0 0 0
0 0 0
0 0 0
0 0 0
0 0 0
0 0 0
0 0 0
0 0 0
0 0 0
0 0 0
0 0 0
0 0 0
0 0 0
0 0 0
0 0 0
0 0 0
0 0 0
0 0 0
0 0 0
0 0 0
0 0 0
0 0 0
0 0 0
0 0 0
0 0 0
0 0 0
0 0 0
0 0 0
0 0 0
0 0 0
0 0 0
0 0 0
0 0 0
0 0 0
0 0 0
0 0 0
0 0 0
0 0 0
0 0 0
0 0 0
0 0 0
0 0 0
0 0 0
0 0 0
0 0 0
0 0 0
0 0 0
0 0 0
0 0 0
0 0 0
0 0 0
0 0 0
0 0 0
</DataArray>
<DataArray type="Float64" Name="cell vector length" format="ascii">
0 0 0 0 0 0 0 0 0 0 0 0 0 0 0 0 0 0 0 0 0 0 0 0 0 0 0 0 0 0 0 0 0 0 0 0 0 0 0 0 0 0 0 0 0 0 0 0 0 0 0 0 0 0 0 0 0 0 0 0 0 0 0 0 0 0 0 0 0 0 0 0 0 0 0 0 0 0 0 0 0 0 0 0 0 0 0 0 0 0 0 0 0 0 0 0 0 0 0 0 0 0 0 0 0 0 0 0 0 0 0 0 0 0 0 0 0 0 0 0 0 0 0 0 0 0 0 0 0 0 0 0 0 0 0 0 0 0 0 0 0 0 0 0 0 0 0 0 0 0 0 0 0 0 0 0 0 0 0 0 0 0 0 0 0 0 0 0 0 0 0 0 0 0 0 0 0 0 0 0 0 0 0 0 0 0 0 0 0 0 0 0 0 0 0 0 0 0 0 0 0 0 0 0 0 0 0 0 0 0 0 0 0 0 0 0 0 0 0 0 0 0 0 0 0 0 0 0 0 0 0 0 0 0 0 0 0 0 0 0 0 0 0 0 0 0 0 0 0 0 0 0 0 0 0 0 0 0 0 0 0 0 0 0 0 0 0 0 0 0 0 0 0 0 0 0 0 0 0 0 0 0 0 0 0 0 0 0 0 0 0 0 0 0 0 0 0 0 0 0 0 0 0 0 0 0 0 0 0 0 0 0 0 0 0 0 0 0 0 0 0 0 0 0 0 0 0 0 0 0 0 0 0 0 0 0 0 0 0 0 0 0 0 0 0 0 0 0 0 0 0 0 0 0 0 0 0 0 0 0 0 0 0 0 0 0 0 0 0 0 0 0 0 0 0 0 0 0 0 0 0 0 0 0 0 0 0 0 0 0 0 0 0 0 0 0 0 0 0 0 0 0 0 0 0 0 0 0 0 0 0 0 0 0 0 0 
</DataArray>
<DataArray type="Float64" Name="cell variable 4" format="ascii">
0.316217 0.000510187 6.16323e-05 1.07467 0.249242 0.0032488 5.60239e-07 0.94865 0.000319359 0.000137838 0.23011 0.479217 5.48914e-07 1.04461 1.14453e-06 0.000586701 0.334198 4.61276e-06 0.573608 0.161465 0.0032488 0.99432 0.511974 0.511974 0.000425284 0.495708 0.393381 0.00403603 0.0824302 0.163146 0.332003 0.626025 0.980966 3.42138e-05 0.437452 0.161465 0.36504 0.184973 0.00760007 4.69927e-06 0.252014 1.1995e-07 2.42345e-06 0.179448 0.000160982 0.000319359 0.000137838 0.434405 0.000705084 0.657465 0.848855 0.23011 0.442722 0.33356 0.673042 0.136507 1.06245 0.000237451 1.11547 0.912892 0.573608 0.161465 0.187543 1.07467 1.55471e-05 0.542818 1.12037 0.848855 0.130161 0.393247 4.18495e-05 0.503886 0.45141 0.000237451 0.0976075 0.371127 0.000116047 0.0505895 5.96913e-06 1.61534e-05 5.26566e-05 0.00103121 0.495708 0.0032488 0.118662 4.61276e-06 0.0824302 1.10185 1.14226 0.371127 0.184973 0.708918 5.26566e-05 0.000160982 4.42555e-05 0.00273317 0.118662 3.42138e-05 1.38398e-06 6.13175e-07 0.503886 1.04461 1.68594e-06 0.313432 0.631062 0.919422 0.479217 5.76039e-06 0.434405 0.912892 0.542818 0.00370628 0.000157331 0.673042 3.49399e-07 8.33062e-06 2.42345e-06 6.16323e-05 0.000116047 0.789941 0.00403603 0.153908 0.399988 0.343308 0.393381 0.000425284 0.179448 0.573608 0.99432 0.000705084 0.514292 4.42555e-05 0.789941 0.000705084 0.66381 4.18495e-05 1.04772e-07 4.61276e-06 1.04461 0.0505895 0.184973 1.00681 7.58754e-07 0.393247 0.187543 1.61534e-05 0.66381 6.97512e-07 0.32239 8.68069e-05 0.0773391 0.980966 0.00151096 0.919422 1.00681 1.23799e-05 0.23011 0.790107 0.542818 0.000237451 3.42138e-05 0.94865 0.848855 0.136507 1.1995e-07 0.763876 0.657465 1.68594e-06 7.29789e-07 0.36504 0.27464 0.184973 0.00403603 0.371127 0.163146 0.313432 1.00681 1.00681 0.130161 0.0824302 1.12037 0.179448 0.00760007 0.000331293 0.00103121 2.42345e-06 0.657465 1.11547 0.313432 0.136507 1.23799e-05 1.68594e-06 1.07467 5.26566e-05 7.58754e-07 0.000209614 0.94865 0.0773391 1.5044e-05 4.18495e-05 0.790107 0.393247 0.161465 1.55471e-05 0.631062 0.50937 0.45141 0.00760007 8.68069e-05 0.442722 0.514292 0.000157331 4.61276e-06 0.495708 0.0773391 0.153908 0.316217 0.136507 1.38398e-06 1.23799e-05 0.252014 0.316217 0.434405 0.00145277 0.000306373 0.8063 0.000331293 0.332003 0.0978407 0.763876 4.42555e-05 0.90618 0.27464 0.187543 0.000510187 0.0646441 1.10185 1.14453e-06 0.00370628 0.631062 1.55471e-05 4.69927e-06 0.343308 0.32239 0.000306373 0.399988 0.90618 0.736473 2.24794e-07 0.0032488 0.00760007 0.393247 0.626025 0.36504 0.316217 0.763876 1.10185 3.09214e-07 0.0097703 0.000705084 0.32239 0.514292 0.184059 1.5044e-05 0.000209614 0.27464 0.0978407 0.0505895 0.437452 4.61276e-06 0.000319359 0.789941 0.136507 0.542818 7.29789e-07 0.000586701 0.136507 3.49399e-07 0.184973 0.0505895 0.187543 3.42138e-05 0.00370628 0.00103121 0.000116047 0.000157331 0.00760007 0.343308 0.50937 0.0097703 0.0505895 0.23011 0.00151096 0.0978407 3.09214e-07 0.0032488 0.000319359 0.184973 0.66381 0.673042 0.912892 0.790107 0.153908 0.179448 0.0646441 0.118662 0.000160982 0.00145277 0.000510187 1.61534e-05 0.631062 0.542818 2.24794e-07 5.48914e-07 0.912892 0.153908 0.130161 1.11547 0.980966 5.48914e-07 0.0824302 0.32239 0.161465 0.399988 4.69927e-06 0.118662 0.153908 1.14226 0.00103121 0.33356 0.163146 0.000137838 0.708918 5.26566e-05 0.626025 5.96913e-06 6.16323e-05 0.495708 0.36504 1.55471e-05 0.542818 0.249242 0.000425284 3.42138e-05 0.000425284 7.58754e-07 0.187543 0.848855 0.000510187 0.434405 0.657465 0.573608 0.919422 0.442722 0.399988 0.252014 0.000137838 0.8063 0.00273317 1.14226 0.000237451 0.343308 6.16323e-05 1.23799e-05 0.919422 0.763876 0.00145277 0.313432 0.789941 1.11547 5.76039e-06 0.442722 0.0773391 1.10185 5.96913e-06 0.790107 0.136507 0.184059 0.673042 0.00370628 0.66381 0.000160982 1.06245 0.514292 0.0976075 0.00151096 0.252014 0.249242 1.14226 0.000157331 0.626025 1.04461 0.179448 1.61534e-05 0.334198 8.33062e-06 0.00151096 0.511974 1.06245 6.13175e-07 0.0505895 0.736473 5.76039e-06 4.42555e-05 0.511974 0.130161 0.23011 7.29789e-07 0.23011 8.33062e-06 0.371127 1.5044e-05 8.33062e-06 0.136507 0.0978407 0.45141 
</DataArray>
<DataArray type="Float64" Name="cell variable 5" format="ascii">
0.0909148 0.999974 1 0.00858434 0.138655 0.998946 1 0.0109898 0.99999 0.999998 0.158855 0.0417277 1 0.00908091 1 0.999966 0.082177 1 0.0294962 0.277231 0.998946 0.0100133 0.0367488 0.0367488 0.999982 0.0391044 0.0606986 0.998374 0.595425 0.273099 0.0831765 0.0248813 0.0102849 1 0.0496613 0.277231 0.0698059 0.226167 0.994257 1 0.136034 1 1 0.236958 0.999997 0.99999 0.999998 0.0503251 0.99995 0.0226112 0.0136882 0.158855 0.0485429 0.0824658 0.021599 0.349234 0.00878122 0.999994 0.00797274 0.0118572 0.0294962 0.277231 0.221374 0.00858434 1 0.0328244 0.00790366 0.0136882 0.371169 0.0607373 1 0.037893 0.0467791 0.999994 0.512105 0.0676886 0.999999 0.796223 1 1 1 0.999894 0.0391044 0.998946 0.415271 1 0.595425 0.00816951 0.00760594 0.0676886 0.226167 0.0195097 1 0.999997 1 0.999254 0.415271 1 1 1 0.037893 0.00908091 1 0.0923878 0.0244954 0.0116913 0.0417277 1 0.0503251 0.0118572 0.0328244 0.998628 0.999998 0.021599 1 1 1 1 0.999999 0.0157727 0.998374 0.296844 0.0588268 0.0782104 0.0606986 0.999982 0.236958 0.0294962 0.0100133 0.99995 0.0364304 1 0.0157727 0.99995 0.0221905 1 1 1 0.00908091 0.796223 0.226167 0.00976872 1 0.0607373 0.221374 1 0.0221905 1 0.0877689 0.999999 0.62573 0.0102849 0.999772 0.0116913 0.00976872 1 0.158855 0.0157662 0.0328244 0.999994 1 0.0109898 0.0136882 0.349234 1 0.016849 0.0226112 1 1 0.0698059 0.117059 0.226167 0.998374 0.0676886 0.273099 0.0923878 0.00976872 0.00976872 0.371169 0.595425 0.00790366 0.236958 0.994257 0.999989 0.999894 1 0.0226112 0.00797274 0.0923878 0.349234 1 1 0.00858434 1 1 0.999996 0.0109898 0.62573 1 1 0.0157662 0.0607373 0.277231 1 0.0244954 0.0371116 0.0467791 0.994257 0.999999 0.0485429 0.0364304 0.999998 1 0.0391044 0.62573 0.296844 0.0909148 0.349234 1 1 0.136034 0.0909148 0.0503251 0.999789 0.999991 0.0151488 0.999989 0.0831765 0.510913 0.016849 1 0.0120314 0.117059 0.221374 0.999974 0.705275 0.00816951 1 0.998628 0.0244954 1 1 0.0782104 0.0877689 0.999991 0.0588268 0.0120314 0.0181031 1 0.998946 0.994257 0.0607373 0.0248813 0.0698059 0.0909148 0.016849 0.00816951 1 0.990544 0.99995 0.0877689 0.0364304 0.227907 1 0.999996 0.117059 0.510913 0.796223 0.0496613 1 0.99999 0.0157727 0.349234 0.0328244 1 0.999966 0.349234 1 0.226167 0.796223 0.221374 1 0.998628 0.999894 0.999999 0.999998 0.994257 0.0782104 0.0371116 0.990544 0.796223 0.158855 0.999772 0.510913 1 0.998946 0.99999 0.226167 0.0221905 0.021599 0.0118572 0.0157662 0.296844 0.236958 0.705275 0.415271 0.999997 0.999789 0.999974 1 0.0244954 0.0328244 1 1 0.0118572 0.296844 0.371169 0.00797274 0.0102849 1 0.595425 0.0877689 0.277231 0.0588268 1 0.415271 0.296844 0.00760594 0.999894 0.0824658 0.273099 0.999998 0.0195097 1 0.0248813 1 1 0.0391044 0.0698059 1 0.0328244 0.138655 0.999982 1 0.999982 1 0.221374 0.0136882 0.999974 0.0503251 0.0226112 0.0294962 0.0116913 0.0485429 0.0588268 0.136034 0.999998 0.0151488 0.999254 0.00760594 0.999994 0.0782104 1 1 0.0116913 0.016849 0.999789 0.0923878 0.0157727 0.00797274 1 0.0485429 0.62573 0.00816951 1 0.0157662 0.349234 0.227907 0.021599 0.998628 0.0221905 0.999997 0.00878122 0.0364304 0.512105 0.999772 0.136034 0.138655 0.00760594 0.999998 0.0248813 0.00908091 0.236958 1 0.082177 1 0.999772 0.0367488 0.00878122 1 0.796223 0.0181031 1 1 0.0367488 0.371169 0.158855 1 0.158855 1 0.0676886 1 1 0.349234 0.510913 0.0467791 
</DataArray>
<DataArray type="Float64" Name="cell variable 6" format="ascii">
0.0038835 1.00883 1.00913 5.3719e-06 0.0566856 1.00681 1.00917 1.10661e-05 1.00896 1.00908 0.0671729 0.00051123 1.00917 6.33494e-06 1.00917 1.00878 0.00576492 1.00917 0.000187165 0.298329 1.00681 8.43313e-06 0.00035504 0.00035504 1.00889 0.000410215 0.00151522 1.00605 0.752638 0.294057 0.00364689 0.000115922 9.11938e-06 1.00915 0.000885689 0.298329 0.0019794 0.208208 1.00277 1.00917 0.0441278 1.00917 1.00917 0.235078 1.00907 1.00896 1.00908 0.000857904 1.0087 8.84138e-05 2.09522e-05 0.0671729 0.000858618 0.00403961 7.76673e-05 0.432355 5.74138e-06 1.00902 4.32387e-06 1.38076e-05 0.000187165 0.298329 0.185318 5.3719e-06 1.00916 0.000251962 4.21468e-06 2.09522e-05 0.477444 0.00202135 1.00915 0.000380196 0.000696942 1.00902 0.67289 0.0019189 1.0091 0.900072 1.00917 1.00916 1.00914 1.00849 0.000410215 1.00681 0.533485 1.00917 0.752638 4.64493e-06 3.76475e-06 0.0019189 0.208208 5.81379e-05 1.00914 1.00907 1.00914 1.00716 0.533485 1.00915 1.00917 1.00917 0.000380196 6.33494e-06 1.00917 0.00439847 0.000110922 1.32528e-05 0.00051123 1.00917 0.000857904 1.38076e-05 0.000251962 1.00642 1.00907 7.76673e-05 1.00917 1.00917 1.00917 1.00913 1.0091 3.156e-05 1.00605 0.3398 0.00127682 0.00310284 0.00151522 1.00889 0.235078 0.000187165 8.43313e-06 1.0087 0.000349016 1.00914 3.156e-05 1.0087 8.3838e-05 1.00915 1.00917 1.00917 6.33494e-06 0.900072 0.208208 7.8448e-06 1.00917 0.00202135 0.185318 1.00916 8.3838e-05 1.00917 0.00628005 1.00912 0.780596 9.11938e-06 1.00816 1.32528e-05 7.8448e-06 1.00917 0.0671729 3.15261e-05 0.000251962 1.00902 1.00915 1.10661e-05 2.09522e-05 0.432355 1.00917 3.81646e-05 8.84138e-05 1.00917 1.00917 0.0019794 0.02163 0.208208 1.00605 0.0019189 0.294057 0.00439847 7.8448e-06 7.8448e-06 0.477444 0.752638 4.21468e-06 0.235078 1.00277 1.00895 1.00849 1.00917 8.84138e-05 4.32387e-06 0.00439847 0.432355 1.00917 1.00917 5.3719e-06 1.00914 1.00917 1.00904 1.10661e-05 0.780596 1.00916 1.00915 3.15261e-05 0.00202135 0.298329 1.00916 0.000110922 0.000394946 0.000696942 1.00277 1.00912 0.000858618 0.000349016 1.00907 1.00917 0.000410215 0.780596 0.3398 0.0038835 0.432355 1.00917 1.00917 0.0441278 0.0038835 0.000857904 1.00814 1.00897 2.80904e-05 1.00895 0.00364689 0.674122 3.81646e-05 1.00914 1.4406e-05 0.02163 0.185318 1.00883 0.841792 4.64493e-06 1.00917 1.00642 0.000110922 1.00916 1.00917 0.00310284 0.00628005 1.00897 0.00127682 1.4406e-05 4.69278e-05 1.00917 1.00681 1.00277 0.00202135 0.000115922 0.0019794 0.0038835 3.81646e-05 4.64493e-06 1.00917 1.00014 1.0087 0.00628005 0.000349016 0.235443 1.00916 1.00904 0.02163 0.674122 0.900072 0.000885689 1.00917 1.00896 3.156e-05 0.432355 0.000251962 1.00917 1.00878 0.432355 1.00917 0.208208 0.900072 0.185318 1.00915 1.00642 1.00849 1.0091 1.00907 1.00277 0.00310284 0.000394946 1.00014 0.900072 0.0671729 1.00816 0.674122 1.00917 1.00681 1.00896 0.208208 8.3838e-05 7.76673e-05 1.38076e-05 3.15261e-05 0.3398 0.235078 0.841792 0.533485 1.00907 1.00814 1.00883 1.00916 0.000110922 0.000251962 1.00917 1.00917 1.38076e-05 0.3398 0.477444 4.32387e-06 9.11938e-06 1.00917 0.752638 0.00628005 0.298329 0.00127682 1.00917 0.533485 0.3398 3.76475e-06 1.00849 0.00403961 0.294057 1.00908 5.81379e-05 1.00914 0.000115922 1.00917 1.00913 0.000410215 0.0019794 1.00916 0.000251962 0.0566856 1.00889 1.00915 1.00889 1.00917 0.185318 2.09522e-05 1.00883 0.000857904 8.84138e-05 0.000187165 1.32528e-05 0.000858618 0.00127682 0.0441278 1.00908 2.80904e-05 1.00716 3.76475e-06 1.00902 0.00310284 1.00913 1.00917 1.32528e-05 3.81646e-05 1.00814 0.00439847 3.156e-05 4.32387e-06 1.00917 0.000858618 0.780596 4.64493e-06 1.00917 3.15261e-05 0.432355 0.235443 7.76673e-05 1.00642 8.3838e-05 1.00907 5.74138e-06 0.000349016 0.67289 1.00816 0.0441278 0.0566856 3.76475e-06 1.00907 0.000115922 6.33494e-06 0.235078 1.00916 0.00576492 1.00917 1.00816 0.00035504 5.74138e-06 1.00917 0.900072 4.69278e-05 1.00917 1.00914 0.00035504 0.477444 0.0671729 1.00917 0.0671729 1.00917 0.0019189 1.00916 1.00917 0.432355 0.674122 0.000696942 
</DataArray>
<DataArray type="Float64" Name="cell variable 7" format="ascii">
0.357275 0.805214 0.804393 0.0863829 0.413855 0.731648 0.910934 0.109939 0.786592 0.818915 0.46057 0.24144 0.895885 0.091923 0.908704 0.789622 0.334908 0.89681 0.203114 0.543895 0.731648 0.10127 0.2268 0.2268 0.777768 0.233945 0.290041 0.781706 0.652741 0.531783 0.340125 0.185875 0.103782 0.881455 0.262734 0.543895 0.311423 0.488241 0.695937 0.865788 0.422896 0.91048 0.886845 0.481302 0.804465 0.786592 0.818915 0.264653 0.790771 0.176526 0.129973 0.46057 0.259721 0.337987 0.172124 0.58017 0.0886341 0.815305 0.0788486 0.116913 0.203114 0.543895 0.511928 0.0863829 0.87201 0.214434 0.0779382 0.129973 0.557964 0.288948 0.828165 0.230311 0.255368 0.815305 0.58928 0.306453 0.821805 0.667622 0.876672 0.855098 0.808066 0.74517 0.233945 0.731648 0.633332 0.89681 0.652741 0.0813708 0.0738515 0.306453 0.488241 0.162493 0.808066 0.804465 0.85435 0.786302 0.633332 0.881455 0.900885 0.926956 0.230311 0.091923 0.922196 0.360012 0.184332 0.115625 0.24144 0.912087 0.264653 0.116913 0.214434 0.736426 0.802201 0.172124 0.887905 0.869271 0.886845 0.804393 0.821805 0.142859 0.781706 0.544906 0.285858 0.329428 0.290041 0.777768 0.481302 0.203114 0.10127 0.790771 0.225806 0.85435 0.142859 0.790771 0.174715 0.828165 0.926865 0.89681 0.091923 0.667622 0.488241 0.0989326 0.900971 0.288948 0.511928 0.855098 0.174715 0.921346 0.347352 0.812727 0.646851 0.103782 0.723507 0.115625 0.0989326 0.864126 0.46057 0.142821 0.214434 0.815305 0.881455 0.109939 0.129973 0.58017 0.91048 0.148901 0.176526 0.922196 0.91184 0.311423 0.399197 0.488241 0.781706 0.306453 0.531783 0.360012 0.0989326 0.0989326 0.557964 0.652741 0.0779382 0.481302 0.695937 0.823381 0.74517 0.886845 0.176526 0.0788486 0.360012 0.58017 0.864126 0.922196 0.0863829 0.808066 0.900971 0.803638 0.109939 0.646851 0.867885 0.828165 0.142821 0.288948 0.543895 0.87201 0.184332 0.227704 0.255368 0.695937 0.812727 0.259721 0.225806 0.802201 0.89681 0.233945 0.646851 0.544906 0.357275 0.58017 0.900885 0.864126 0.422896 0.357275 0.264653 0.822606 0.774006 0.139181 0.823381 0.340125 0.570965 0.148901 0.85435 0.118245 0.399197 0.511928 0.805214 0.663687 0.0813708 0.908704 0.736426 0.184332 0.87201 0.865788 0.329428 0.347352 0.774006 0.285858 0.118245 0.15552 0.921969 0.731648 0.695937 0.288948 0.185875 0.311423 0.357275 0.148901 0.0813708 0.914119 0.724735 0.790771 0.347352 0.225806 0.426674 0.867885 0.803638 0.399197 0.570965 0.667622 0.262734 0.89681 0.786592 0.142859 0.58017 0.214434 0.91184 0.789622 0.58017 0.887905 0.488241 0.667622 0.511928 0.881455 0.736426 0.74517 0.821805 0.802201 0.695937 0.329428 0.227704 0.724735 0.667622 0.46057 0.723507 0.570965 0.914119 0.731648 0.786592 0.488241 0.174715 0.172124 0.116913 0.142821 0.544906 0.481302 0.663687 0.633332 0.804465 0.822606 0.805214 0.855098 0.184332 0.214434 0.921969 0.895885 0.116913 0.544906 0.557964 0.0788486 0.103782 0.895885 0.652741 0.347352 0.543895 0.285858 0.865788 0.633332 0.544906 0.0738515 0.74517 0.337987 0.531783 0.818915 0.162493 0.808066 0.185875 0.876672 0.804393 0.233945 0.311423 0.87201 0.214434 0.413855 0.777768 0.881455 0.777768 0.900971 0.511928 0.129973 0.805214 0.264653 0.176526 0.203114 0.115625 0.259721 0.285858 0.422896 0.818915 0.139181 0.786302 0.0738515 0.815305 0.329428 0.804393 0.864126 0.115625 0.148901 0.822606 0.360012 0.142859 0.0788486 0.912087 0.259721 0.646851 0.0813708 0.876672 0.142821 0.58017 0.426674 0.172124 0.736426 0.174715 0.804465 0.0886341 0.225806 0.58928 0.723507 0.422896 0.413855 0.0738515 0.802201 0.185875 0.091923 0.481302 0.855098 0.334908 0.869271 0.723507 0.2268 0.0886341 0.926956 0.667622 0.15552 0.912087 0.85435 0.2268 0.557964 0.46057 0.91184 0.46057 0.869271 0.306453 0.867885 0.869271 0.58017 0.570965 0.255368 
</DataArray>
<DataArray type="Float64" Name="cell variable 8" format="ascii">