<VTKFile type="UnstructuredGrid" version="0.1">
<UnstructuredGrid>
<Piece  NumberOfPoints="    2434" NumberOfCells="     406">
<Points>
<DataArray type="Float64" NumberOfComponents="3" format="ascii">
43.9119 -38.96 0.0
43.9498 -38.3496 0.0
38.8385 -34.4924 0.0
37.466 -34.9726 0.0
36.7567 -36.0719 0.0
41.8707 -40.4919 0.0
26.3262 40.577 0.0
25.0756 40.58 0.0
24.3307 38.0791 0.0
24.4215 34.6621 0.0
25.05 34.1459 0.0
29.3028 34.1328 0.0
29.6353 35.3779 0.0
32.1691 -23.9018 0.0
31.6457 -19.8657 0.0
25.1127 -22.5962 0.0
24.1915 -24.3698 0.0
25.1276 -25.4806 0.0
-2.209 20.4827 0.0
-6.52775 17.1304 0.0
-5.88642 14.1099 0.0
-1.20551 17.0593 0.0
-0.0380982 18.2052 0.0
-34.2544 -43.3926 0.0
-32.0426 -46.5279 0.0
-29.5513 -44.9951 0.0
-29.5923 -42.0781 0.0
-30.2063 -40.2476 0.0
14.6202 -22.8871 0.0
12.522 -21.5379 0.0
8.74885 -22.2672 0.0
5.34593 -23.3307 0.0
4.9195 -24.1666 0.0
7.42871 -26.2114 0.0
-41.4487 -9.50755 0.0
-38.7033 -12.4649 0.0
-38.06 -12.7805 0.0
-36.8249 -12.4263 0.0
-37.5518 -8.54012 0.0
-38.2793 -5.31434 0.0
15.4206 -22.4482 0.0
17.2128 -19.5914 0.0
14.8459 -14.7982 0.0
10.9274 -15.4945 0.0
12.9999 -21.0079 0.0
15.0982 -22.3571 0.0
-37.9795 34.6713 0.0
-35.4931 41.0418 0.0
-35.4116 42.2951 0.0
-35.781 43.8423 0.0
-37.4419 43.9201 0.0
-38.8498 42.721 0.0
-39.7564 40.2328 0.0
19.6656 -43.7043 0.0
15.5587 -43.0851 0.0
14.8121 -43.541 0.0
14.1192 -46.9138 0.0
15.9057 -48.522 0.0
16.2813 -48.5307 0.0
19.4904 -48.084 0.0
2.9761 17.6033 0.0
2.80298 16.956 0.0
7.10595 12.5431 0.0
8.30857 12.5263 0.0
9.17745 12.5697 0.0
9.04321 16.7565 0.0
8.26713 17.1717 0.0
-46.8063 -18.4112 0.0
-51.6228 -15.7334 0.0
-53.1962 -17.4411 0.0
-53.2755 -20.8545 0.0
-52.0356 -24.1492 0.0
-51.8585 -24.251 0.0
-49.9829 -22.0482 0.0
22.7509 26.0295 0.0
22.9697 26.6319 0.0
19.5585 34.3259 0.0
17.3913 34.6314 0.0
16.7076 33.0229 0.0
16.6256 32.0699 0.0
-12.8129 -11.1946 0.0
-13.6527 -14.099 0.0
-12.4497 -14.8125 0.0
-8.21429 -16.3747 0.0
-7.16113 -15.463 0.0
-6.75248 -14.8126 0.0
-7.6428 -12.4078 0.0
41.7268 -3.46068 0.0
38.0424 -2.93995 0.0
36.6957 -8.90256 0.0
39.1336 -8.41447 0.0
42.1967 -3.95698 0.0
-16.7246 -37.9668 0.0
-18.0803 -37.6902 0.0
-22.2673 -39.0747 0.0
-21.8067 -42.5866 0.0
-18.6497 -44.9752 0.0
-18.3564 -44.9677 0.0
-22.955 57.8766 0.0
-23.9922 57.7037 0.0
-25.3684 51.6375 0.0
-23.707 50.9168 0.0
-23.1719 50.9385 0.0
-20.0953 51.3115 0.0
-19.2834 55.3017 0.0
-21.4241 57.5733 0.0
-46.2395 20.8546 0.0
-48.9245 20.5323 0.0
-49.1912 20.077 0.0
-50.3116 15.7327 0.0
-47.3044 13.4099 0.0
-45.4056 14.2466 0.0
45.5247 -7.27344 0.0
44.7898 -5.35887 0.0
43.4228 -4.19156 0.0
42.4924 -4.17939 0.0
39.4293 -8.63689 0.0
39.1638 -10.9384 0.0
39.1981 -12.5086 0.0
38.4522 -11.2819 0.0
38.7177 -8.98033 0.0
36.2798 -9.46842 0.0
32.0693 -10.5542 0.0
31.7707 -11.7207 0.0
31.964 -14.1336 0.0
-38.325 -3.06262 0.0
-36.1624 -3.00002 0.0
-36.3 3.09196 0.0
-38.2885 4.68736 0.0
-38.8484 4.06955 0.0
-38.9812 1.56339 0.0
-39.1891 -2.36812 0.0
-21.6651 24.5146 0.0
-23.8079 21.7933 0.0
-24.5288 20.4805 0.0
-23.9585 17.6424 0.0
-21.8223 17.3415 0.0
-20.4136 20.0045 0.0
31.864 32.0098 0.0
34.76 34.635 0.0
33.0177 40.2578 0.0
30.22 35.2563 0.0
29.8875 34.0112 0.0
44.3857 22.4262 0.0
46.2268 23.0605 0.0
46.8789 27.8944 0.0
46.7706 28.7004 0.0
46.0798 29.8991 0.0
43.1357 30.7391 0.0
42.2146 30.0278 0.0
41.6914 27.9742 0.0
-50.3716 8.14998 0.0
-50.5412 8.87613 0.0
-52.0947 13.0449 0.0
-53.8865 11.5366 0.0
-54.8431 10.1639 0.0
-52.9753 5.89751 0.0
-44.8993 21.1377 0.0
-45.8278 20.828 0.0
-44.9939 14.2201 0.0
-42.2309 14.1458 0.0
-39.9813 14.5038 0.0
-51.1036 29.8058 0.0
-51.1862 29.7121 0.0
-46.256 28.4595 0.0
-43.1507 31.904 0.0
-43.5487 33.0193 0.0
-46.6699 32.1898 0.0
-57.2368 16.8368 0.0
-59.1883 14.7671 0.0
-54.1612 12.0478 0.0
-52.3694 13.5561 0.0
-51.7424 15.0408 0.0
-42.2845 13.6123 0.0
-45.0475 13.6865 0.0
-46.9463 12.8498 0.0
-45.9775 10.0167 0.0
-41.6844 8.95297 0.0
30.1137 -54.1067 0.0
34.2502 -50.6603 0.0
30.5324 -48.7421 0.0
27.1692 -49.8216 0.0
27.4737 -53.5169 0.0
28.5996 -54.2909 0.0
-50.8691 0.827976 0.0
-52.124 2.42134 0.0
-58.1857 4.73393 0.0
-59.0881 1.05391 0.0
-55.5376 -2.14051 0.0
6.70129 43.4807 0.0
3.79497 45.2377 0.0
1.93092 44.2428 0.0
-3.26399 37.9623 0.0
-2.05607 37.4182 0.0
9.73245 26.7544 0.0
9.18373 25.7604 0.0
8.68596 17.8917 0.0
9.46203 17.4764 0.0
10.0395 17.7378 0.0
12.8035 21.0405 0.0
13.1141 21.4089 0.0
13.4222 24.6699 0.0
12.0974 26.5932 0.0
9.54277 42.3801 0.0
6.91964 43.2668 0.0
-1.83772 37.2043 0.0
-0.0957943 35.7647 0.0
1.67787 36.3152 0.0
8.50464 40.8462 0.0
-39.1328 -38.7031 0.0
-39.2599 -39.2206 0.0
-37.4538 -41.1836 0.0
-35.002 -42.5665 0.0
-33.4166 -37.0925 0.0
-39.2435 7.67861 0.0
-41.6427 8.55834 0.0
-45.9358 9.62211 0.0
-46.1032 8.26083 0.0
-45.8457 5.33601 0.0
-4.97848 37.9554 0.0
-3.72108 37.9676 0.0
1.47383 44.2481 0.0
-5.16853 43.8991 0.0
-28.7171 -16.4421 0.0
-31.3763 -14.0091 0.0
-34.1198 -12.8806 0.0
-35.0843 -13.2121 0.0
-34.3739 -14.8073 0.0
-32.3626 -18.7538 0.0
-25.0573 29.5055 0.0
-25.7943 29.7899 0.0
-28.4858 29.3103 0.0
-28.2664 24.7647 0.0
-25.3998 21.2609 0.0
-24.9124 21.0277 0.0
-24.1916 22.3405 0.0
54.2843 -27.5191 0.0
55.4828 -26.1254 0.0
55.6666 -25.7098 0.0
55.9279 -21.6719 0.0
50.1389 -23.1321 0.0
46.7909 -25.2838 0.0
-23.5702 -51.2131 0.0
-22.5974 -51.0828 0.0
-18.864 -45.5788 0.0
-22.021 -43.1902 0.0
-22.5043 -43.4911 0.0
44.1515 -38.0996 0.0
44.2048 -32.5783 0.0
41.7046 -33.1457 0.0
39.0402 -34.2424 0.0
26.3264 -49.843 0.0
22.3181 -52.0823 0.0
19.8708 -56.4128 0.0
26.8645 -53.6883 0.0
26.5599 -49.993 0.0
-59.4586 14.4964 0.0
-60.4807 13.4463 0.0
-61.0266 12.1304 0.0
-58.7656 9.5091 0.0
-55.3881 10.4044 0.0
-54.4314 11.7771 0.0
8.81427 40.6367 0.0
1.9875 36.1057 0.0
9.10378 35.4782 0.0
10.2677 36.3833 0.0
24.8637 2.40283 0.0
24.2843 2.78246 0.0
18.6507 -1.56454 0.0
18.6276 -4.26675 0.0
19.887 -5.03839 0.0
22.9704 -3.16626 0.0
8.90044 -13.7594 0.0
9.85809 -13.9665 0.0
11.1981 -12.9564 0.0
19.0732 -7.03666 0.0
19.12 -5.82164 0.0
17.8605 -5.05 0.0
17.4573 -5.09594 0.0
16.8824 -5.19161 0.0
9.89583 -10.572 0.0
9.11675 -11.1751 0.0
24.752 47.7501 0.0
24.7294 46.9046 0.0
30.0118 42.0679 0.0
32.3502 42.4571 0.0
32.1703 44.5957 0.0
28.1441 46.4174 0.0
-7.14855 -39.6133 0.0
-7.84783 -40.0421 0.0
-6.18303 -46.6161 0.0
-4.32735 -45.3077 0.0
-1.64865 -42.4418 0.0
24.1599 -17.359 0.0
21.7694 -15.7275 0.0
17.7901 -19.7167 0.0
15.998 -22.5735 0.0
16.3402 -23.1164 0.0
18.3268 -23.1936 0.0
32.7546 15.2186 0.0
34.5077 10.7205 0.0
39.4722 16.5657 0.0
-32.261 5.86278 0.0
-32.1544 6.32356 0.0
-32.1674 8.49892 0.0
-34.817 9.49782 0.0
-37.0133 10.1891 0.0
-38.0313 7.57243 0.0
-38.0148 6.642 0.0
9.62865 -57.9675 0.0
7.39998 -54.4269 0.0
1.65179 -56.2944 0.0
4.20043 -58.3459 0.0
8.32443 -58.8239 0.0
8.76639 -58.6884 0.0
-18.2818 49.807 0.0
-12.6299 53.9707 0.0
-14.6242 57.1256 0.0
-15.0536 57.0083 0.0
-18.6921 55.2514 0.0
-19.5041 51.2612 0.0
-32.04 30.9996 0.0
-34.3705 29.2348 0.0
-31.2411 23.9343 0.0
-28.7486 24.9564 0.0
-28.9679 29.5021 0.0
-30.2126 30.9648 0.0
-50.8597 15.8127 0.0
-49.7393 20.1571 0.0
-56.5365 19.2818 0.0
-57.0201 17.1754 0.0
-51.5257 15.3794 0.0
22.3984 23.3037 0.0
20.3287 19.8485 0.0
27.0488 18.2581 0.0
24.5904 22.8992 0.0
23.3416 23.6593 0.0
36.6974 1.54822 0.0
37.3397 0.456887 0.0
44.7059 5.7385 0.0
45.7266 7.51026 0.0
43.4318 9.51518 0.0
38.8904 4.90239 0.0
12.5542 -3.49104 0.0
10.1495 -2.43892 0.0
7.41973 -7.62426 0.0
8.50652 -10.3958 0.0
8.71012 -10.8814 0.0
9.4892 -10.2783 0.0
23.4375 -3.02542 0.0
25.5848 -3.93616 0.0
29.4386 2.46581 0.0
28.6174 3.00132 0.0
26.7619 3.04353 0.0
25.3308 2.54368 0.0
38.5384 -13.1673 0.0
38.504 -11.5972 0.0
32.0159 -14.4489 0.0
31.9431 -15.6607 0.0
32.8935 -16.5728 0.0
37.2118 -15.9661 0.0
38.0364 -14.9635 0.0
-34.913 -43.1874 0.0
-37.3648 -41.8045 0.0
-37.6572 -46.2863 0.0
-33.2826 -49.8934 0.0
-32.4174 -46.7561 0.0
-34.6292 -43.6208 0.0
-6.55336 -16.089 0.0
-7.60652 -17.0008 0.0
-7.4818 -17.9103 0.0
-2.65228 -23.7754 0.0
-1.78187 -24.2756 0.0
-1.0526 -20.5301 0.0
-5.54612 23.4644 0.0
-8.42221 23.273 0.0
-13.029 15.2448 0.0
-12.1659 13.849 0.0
-10.1688 15.4982 0.0
41.9553 13.4323 0.0
38.006 10.3353 0.0
38.805 5.35034 0.0
43.3464 9.96313 0.0
42.5545 12.3315 0.0
-35.8184 -3.12181 0.0
-32.3499 -3.32615 0.0
-31.8307 -2.03753 0.0
-33.0579 0.861503 0.0
-35.956 2.97017 0.0
-1.14304 -3.62678 0.0
-1.02338 -3.56129 0.0
-4.96209 4.54067 0.0
-5.98864 4.34808 0.0
-6.58226 0.502934 0.0
27.7701 16.7165 0.0
25.3363 14.5258 0.0
26.8721 4.09613 0.0
28.7276 4.05393 0.0
28.4272 15.1924 0.0
28.23 16.5984 0.0
47.5013 16.1363 0.0
48.5853 16.2655 0.0
48.4468 21.1615 0.0
46.4307 22.3188 0.0
44.5896 21.6845 0.0
43.2724 20.5735 0.0
-24.039 -51.2388 0.0
-23.8728 -51.218 0.0
-22.8068 -43.496 0.0
-27.2256 -46.0309 0.0
-21.4397 -26.6913 0.0
-20.6486 -28.525 0.0
-19.509 -28.5566 0.0
-17.5814 -25.8078 0.0
-17.7929 -22.0929 0.0
-17.808 -21.5958 0.0
-18.1735 -21.0678 0.0
-20.6781 -20.3606 0.0
-24.5129 40.5637 0.0
-24.6214 38.2066 0.0
-23.4265 37.4141 0.0
-20.207 36.7667 0.0
-18.7136 38.1222 0.0
-19.1677 41.4469 0.0
45.2974 -4.82073 0.0
50.108 -3.00159 0.0
48.2488 0.568452 0.0
43.9304 -3.65342 0.0
-44.5949 -13.8383 0.0
-51.0563 -13.6595 0.0
-51.2902 -15.3314 0.0
-46.4737 -18.0092 0.0
-44.7942 -18.0853 0.0
-51.1311 30.2535 0.0
-46.6974 32.6375 0.0
-43.4039 40.458 0.0
-45.2144 39.501 0.0
-35.0185 40.9007 0.0
-33.2949 35.5236 0.0
-29.9607 38.2802 0.0
-30.9041 39.4503 0.0
-34.937 42.1541 0.0
0.510412 59.3721 0.0
-0.253699 59.2142 0.0
0.800545 54.2258 0.0
4.75189 53.02 0.0
5.18316 57.1152 0.0
43.201 12.397 0.0
43.9929 10.0286 0.0
46.2877 8.0237 0.0
47.6625 8.21594 0.0
50.8418 9.89368 0.0
50.4672 11.3571 0.0
53.312 8.68449 0.0
51.1672 9.5418 0.0
47.988 7.86405 0.0
48.438 5.47753 0.0
48.98 2.62689 0.0
20.4132 -10.7968 0.0
20.2677 -10.3877 0.0
11.3592 -13.3165 0.0
10.0192 -14.3267 0.0
11.0557 -14.9484 0.0
14.9741 -14.2521 0.0
19.9849 -12.1723 0.0
10.0051 -47.4652 0.0
13.5197 -46.7473 0.0
14.2126 -43.3745 0.0
9.82399 -41.1255 0.0
8.68665 -40.732 0.0
7.70473 -41.1005 0.0
17.6512 -36.2647 0.0
[...]
<CellData Scalars="cell variable 4" Vectors="cell vector">
<DataArray type="Float64" NumberOfComponents="3" Name="cell vector" format="ascii">
0 0 0
0 0 0
0 0 0
0 0 0
0 0 0
0 0 0
0 0 0
0 0 0
0 0 0
0 0 0
0 0 0
0 0 0
0 0 0
0 0 0
0 0 0
0 0 0
0 0 0
0 0 0
0 0 0
0 0 0
0 0 0
0 0 0
0 0 0
0 0 0
0 0 0
0 0 0
0 0 0
0 0 0
0 0 0
0 0 0
0 0 0
0 0 0
0 0 0
0 0 0
0 0 0
0 0 0
0 0 0
0 0 0
0 0 0
0 0 0
0 0 0
0 0 0
0 0 0
0 0 0
0 0 0
0 0 0
0 0 0
0 0 0
0 0 0
0 0 0
0 0 0
0 0 0
0 0 0
0 0 0
0 0 0
0 0 0
0 0 0
0 0 0
0 0 0
0 0 0
0 0 0
0 0 0
0 0 0
0 0 0
0 0 0
0 0 0
0 0 0
0 0 0
0 0 0
0 0 0
0 0 0
0 0 0
0 0 0
0 0 0
0 0 0
0 0 0
0 0 0
0 0 0
0 0 0
0 0 0
0 0 0
0 0 0
0 0 0
0 0 0
0 0 0
0 0 0
0 0 0
0 0 0
0 0 0
0 0 0
0 0 0
0 0 0
0 0 0
0 0 0
0 0 0
0 0 0
0 0 0
0 0 0
0 0 0
0 0 0
0 0 0
0 0 0
0 0 0
0 0 0
0 0 0
0 0 0
0 0 0
0 0 0
0 0 0
0 0 0
0 0 0
0 0 0
0 0 0
0 0 0
0 0 0
0 0 0
0 0 0
0 0 0
0 0 0
0 0 0
0 0 0
0 0 0
0 0 0
0 0 0
0 0 0
0 0 0
0 0 0
0 0 0
0 0 0
0 0 0
0 0 0
0 0 0
0 0 0
0 0 0
0 0 0
0 0 0
0 0 0
0 0 0
0 0 0
0 0 0
0 0 0
0 0 0
0 0 0
0 0 0
0 0 0
0 0 0
0 0 0
0 0 0
0 0 0
0 0 0
0 0 0
0 0 0
0 0 0
0 0 0
0 0 0
0 0 0
0 0 0
0 0 0
0 0 0
0 0 0
0 0 0
0 0 0
0 0 0
0 0 0
0 0 0
0 0 0
0 0 0
0 0 0
0 0 0
0 0 0
0 0 0
0 0 0
0 0 0
0 0 0
0 0 0
0 0 0
0 0 0
0 0 0
0 0 0
0 0 0
0 0 0
0 0 0
0 0 0
0 0 0
0 0 0
0 0 0
0 0 0
0 0 0
0 0 0
0 0 0
0 0 0
0 0 0
0 0 0
0 0 0
0 0 0
0 0 0
0 0 0
0 0 0
0 0 0
0 0 0
0 0 0
0 0 0
0 0 0
0 0 0
0 0 0
0 0 0
0 0 0
0 0 0
0 0 0
0 0 0
0 0 0
0 0 0
0 0 0
0 0 0
0 0 0
0 0 0
0 0 0
0 0 0
0 0 0
0 0 0
0 0 0
0 0 0
0 0 0
0 0 0
0 0 0
0 0 0
0 0 0
0 0 0
0 0 0
0 0 0
0 0 0
0 0 0
0 0 0
0 0 0
0 0 0
0 0 0
0 0 0
0 0 0
0 0 0
0 0 0
0 0 0
0 0 0
0 0 0
0 0 0
0 0 0
0 0 0
0 0 0
0 0 0
0 0 0
0 0 0
0 0 0
0 0 0
0 0 0
0 0 0
0 0 0
0 0 0
0 0 0
0 0 0
0 0 0
0 0 0
0 0 0
0 0 0
0 0 0
0 0 0
0 0 0
0 0 0
0 0 0
0 0 0
0 0 0
0 0 0
0 0 0
0 0 0
0 0 0
0 0 0
0 0 0
0 0 0
0 0 0
0 0 0
0 0 0
0 0 0
0 0 0
0 0 0
0 0 0
0 0 0
0 0 0
0 0 0
0 0 0
0 0 0
0 0 0
0 0 0
0 0 0
0 0 0
0 0 0
0 0 0
0 0 0
0 0 0
0 0 0
0 0 0
0 0 0
0 0 0
0 0 0
0 0 0
0 0 0
0 0 0
0 0 0
0 0 0
0 0 0
0 0 0
0 0 0
0 0 0
0 0 0
0 0 0
0 0 0
0 0 0
0 0 0
0 0 0
0 0 0
0 0 0
0 0 0
0 0 0
0 0 0
0 0 0
0 0 0
0 0 0
0 0 0
0 0 0
0 0 0
0 0 0
0 0 0
0 0 0
0 0 0
0 0 0
0 0 0
0 0 0
0 0 0
0 0 0
0 0 0
0 0 0
0 0 0
0 0 0
0 0 0
0 0 0
0 0 0
0 0 0
0 0 0
0 0 0
0 0 0
0 0 0
0 0 0
0 0 0
0 0 0
0 0 0
0 0 0
0 0 0
0 0 0
0 0 0
0 0 0
0 0 0
0 0 0
0 0 0
0 0 0
0 0 0
0 0 0
0 0 0
0 0 0
0 0 0
0 0 0
0 0 0
0 0 0
0 0 0
0 0 0
0 0 0
0 0 0
0 0 0
0 0 0
0 0 0
0 0 0
0 0 0
0 0 0
0 0 0
0 0 0
0 0 0
0 0 0
0 0 0
0 0 0
0 0 0
0 0 0
0 0 0
0 0 0
0 0 0
0 0 0
0 0 0
0 0 0
0 0 0
0 0 0
0 0 0
0 0 0
0 0 0
0 0 0
0 0 0
0 0 0
0 0 0
0 0 0
0 0 0
0 0 0
0 0 0
</DataArray>
<DataArray type="Float64" Name="cell vector length" format="ascii">
0 0 0 0 0 0 0 0 0 0 0 0 0 0 0 0 0 0 0 0 0 0 0 0 0 0 0 0 0 0 0 0 0 0 0 0 0 0 0 0 0 0 0 0 0 0 0 0 0 0 0 0 0 0 0 0 0 0 0 0 0 0 0 0 0 0 0 0 0 0 0 0 0 0 0 0 0 0 0 0 0 0 0 0 0 0 0 0 0 0 0 0 0 0 0 0 0 0 0 0 0 0 0 0 0 0 0 0 0 0 0 0 0 0 0 0 0 0 0 0 0 0 0 0 0 0 0 0 0 0 0 0 0 0 0 0 0 0 0 0 0 0 0 0 0 0 0 0 0 0 0 0 0 0 0 0 0 0 0 0 0 0 0 0 0 0 0 0 0 0 0 0 0 0 0 0 0 0 0 0 0 0 0 0 0 0 0 0 0 0 0 0 0 0 0 0 0 0 0 0 0 0 0 0 0 0 0 0 0 0 0 0 0 0 0 0 0 0 0 0 0 0 0 0 0 0 0 0 0 0 0 0 0 0 0 0 0 0 0 0 0 0 0 0 0 0 0 0 0 0 0 0 0 0 0 0 0 0 0 0 0 0 0 0 0 0 0 0 0 0 0 0 0 0 0 0 0 0 0 0 0 0 0 0 0 0 0 0 0 0 0 0 0 0 0 0 0 0 0 0 0 0 0 0 0 0 0 0 0 0 0 0 0 0 0 0 0 0 0 0 0 0 0 0 0 0 0 0 0 0 0 0 0 0 0 0 0 0 0 0 0 0 0 0 0 0 0 0 0 0 0 0 0 0 0 0 0 0 0 0 0 0 0 0 0 0 0 0 0 0 0 0 0 0 0 0 0 0 0 0 0 0 0 0 0 0 0 0 0 0 0 0 0 0 0 0 0 0 0 0 0 0 0 0 0 0 
</DataArray>
<DataArray type="Float64" Name="cell variable 4" format="ascii">
0.316217 0.434405 0.657465 1.07467 0.437452 0.94865 0.542818 0.94865 0.371127 0.399988 1.14226 0.479217 0.790107 1.04461 0.573608 0.66381 0.334198 0.495708 0.573608 0.573608 0.542818 0.99432 0.511974 0.511974 0.332003 0.495708 0.393381 0.179448 0.495708 0.163146 0.332003 0.626025 0.980966 0.626025 0.437452 0.495708 0.36504 0.631062 0.673042 0.313432 0.393247 0.316217 0.187543 0.179448 0.626025 1.10185 1.11547 0.434405 0.514292 0.657465 0.848855 0.8063 0.442722 0.33356 0.673042 0.179448 1.06245 0.736473 1.11547 0.912892 0.573608 0.136507 1.04461 1.07467 0.736473 0.542818 1.12037 0.848855 0.50937 0.393247 0.631062 0.503886 0.45141 0.542818 0.153908 0.371127 0.36504 0.50937 0.45141 1.11547 0.442722 0.708918 0.495708 0.790107 0.45141 0.399988 1.04461 1.10185 1.14226 0.371127 0.393381 0.708918 0.36504 0.313432 0.980966 0.0978407 0.118662 0.919422 0.503886 0.542818 0.503886 1.04461 0.919422 0.313432 0.631062 0.919422 0.479217 0.542818 0.434405 0.912892 0.542818 0.790107 0.763876 0.673042 0.161465 0.334198 0.542818 0.657465 1.11547 0.789941 0.393247 0.511974 0.399988 0.343308 0.393381 0.673042 0.32239 0.573608 0.99432 0.514292 0.514292 0.763876 0.789941 0.393381 0.66381 1.06245 0.50937 0.789941 1.04461 0.789941 0.790107 1.00681 1.12037 0.393247 0.542818 0.980966 0.66381 0.99432 0.32239 0.848855 0.511974 0.980966 0.313432 0.919422 1.00681 0.332003 0.912892 0.790107 0.542818 1.06245 1.07467 0.94865 0.848855 1.06245 0.511974 0.763876 0.657465 0.434405 1.11547 0.36504 0.27464 0.184973 0.573608 0.371127 0.313432 0.313432 1.00681 1.00681 0.343308 0.187543 1.12037 1.00681 1.00681 0.657465 0.442722 0.437452 0.657465 1.11547 0.313432 0.848855 0.542818 0.912892 1.07467 0.399988 0.50937 0.789941 0.94865 0.763876 0.8063 0.50937 0.790107 0.393247 0.161465 0.657465 0.631062 0.50937 0.45141 0.708918 0.763876 0.442722 0.514292 0.673042 0.631062 0.495708 0.316217 0.153908 0.316217 0.673042 0.573608 1.07467 0.252014 0.316217 0.434405 0.45141 0.343308 0.8063 0.511974 0.332003 0.437452 0.763876 0.316217 0.90618 0.27464 1.10185 1.04461 0.919422 1.10185 0.479217 0.45141 0.631062 0.99432 0.23011 0.343308 0.32239 0.32239 0.399988 0.90618 0.736473 0.36504 1.07467 1.10185 0.393247 0.626025 0.36504 0.316217 0.763876 1.10185 0.27464 0.442722 0.437452 1.11547 0.514292 0.479217 0.45141 0.36504 0.631062 1.14226 0.912892 0.437452 0.919422 1.11547 0.789941 0.136507 0.542818 0.503886 0.163146 0.36504 0.631062 0.94865 0.371127 0.187543 0.736473 0.8063 0.912892 0.249242 0.631062 0.573608 0.343308 0.50937 1.00681 0.343308 1.14226 0.94865 0.32239 0.332003 0.8063 0.66381 1.12037 0.66381 0.673042 0.912892 0.790107 1.12037 0.334198 0.187543 0.848855 0.33356 0.313432 0.434405 0.90618 0.631062 0.542818 1.12037 1.07467 0.912892 0.399988 1.10185 1.11547 0.980966 0.8063 0.631062 0.32239 0.393381 0.399988 0.332003 0.316217 0.542818 1.14226 0.573608 0.33356 1.04461 0.66381 0.708918 0.27464 0.626025 0.479217 0.90618 0.495708 0.36504 0.514292 0.542818 0.249242 1.00681 0.393381 0.99432 1.06245 0.8063 0.848855 0.33356 0.434405 0.657465 0.573608 0.919422 0.442722 0.399988 0.252014 0.514292 0.8063 0.495708 1.14226 1.12037 0.343308 0.313432 0.919422 0.919422 0.763876 0.848855 0.313432 0.789941 1.11547 0.980966 0.442722 0.434405 1.10185 0.90618 0.790107 1.12037 0.393247 0.673042 0.626025 0.66381 0.511974 1.06245 0.514292 0.542818 0.343308 0.626025 0.90618 1.14226 0.631062 0.626025 1.04461 0.179448 0.371127 0.334198 0.919422 0.66381 0.511974 1.06245 0.161465 1.07467 0.252014 0.789941 0.442722 0.673042 0.371127 
</DataArray>
<DataArray type="Float64" Name="cell variable 5" format="ascii">
0.0909148 0.0503251 0.0226112 0.00858434 0.0496613 0.0109898 0.0328244 0.0109898 0.0676886 0.0588268 0.00760594 0.0417277 0.0157662 0.00908091 0.0294962 0.0221905 0.082177 0.0391044 0.0294962 0.0294962 0.0328244 0.0100133 0.0367488 0.0367488 0.0831765 0.0391044 0.0606986 0.236958 0.0391044 0.273099 0.0831765 0.0248813 0.0102849 0.0248813 0.0496613 0.0391044 0.0698059 0.0244954 0.021599 0.0923878 0.0607373 0.0909148 0.221374 0.236958 0.0248813 0.00816951 0.00797274 0.0503251 0.0364304 0.0226112 0.0136882 0.0151488 0.0485429 0.0824658 0.021599 0.236958 0.00878122 0.0181031 0.00797274 0.0118572 0.0294962 0.349234 0.00908091 0.00858434 0.0181031 0.0328244 0.00790366 0.0136882 0.0371116 0.0607373 0.0244954 0.037893 0.0467791 0.0328244 0.296844 0.0676886 0.0698059 0.0371116 0.0467791 0.00797274 0.0485429 0.0195097 0.0391044 0.0157662 0.0467791 0.0588268 0.00908091 0.00816951 0.00760594 0.0676886 0.0606986 0.0195097 0.0698059 0.0923878 0.0102849 0.510913 0.415271 0.0116913 0.037893 0.0328244 0.037893 0.00908091 0.0116913 0.0923878 0.0244954 0.0116913 0.0417277 0.0328244 0.0503251 0.0118572 0.0328244 0.0157662 0.016849 0.021599 0.277231 0.082177 0.0328244 0.0226112 0.00797274 0.0157727 0.0607373 0.0367488 0.0588268 0.0782104 0.0606986 0.021599 0.0877689 0.0294962 0.0100133 0.0364304 0.0364304 0.016849 0.0157727 0.0606986 0.0221905 0.00878122 0.0371116 0.0157727 0.00908091 0.0157727 0.0157662 0.00976872 0.00790366 0.0607373 0.0328244 0.0102849 0.0221905 0.0100133 0.0877689 0.0136882 0.0367488 0.0102849 0.0923878 0.0116913 0.00976872 0.0831765 0.0118572 0.0157662 0.0328244 0.00878122 0.00858434 0.0109898 0.0136882 0.00878122 0.0367488 0.016849 0.0226112 0.0503251 0.00797274 0.0698059 0.117059 0.226167 0.0294962 0.0676886 0.0923878 0.0923878 0.00976872 0.00976872 0.0782104 0.221374 0.00790366 0.00976872 0.00976872 0.0226112 0.0485429 0.0496613 0.0226112 0.00797274 0.0923878 0.0136882 0.0328244 0.0118572 0.00858434 0.0588268 0.0371116 0.0157727 0.0109898 0.016849 0.0151488 0.0371116 0.0157662 0.0607373 0.277231 0.0226112 0.0244954 0.0371116 0.0467791 0.0195097 0.016849 0.0485429 0.0364304 0.021599 0.0244954 0.0391044 0.0909148 0.296844 0.0909148 0.021599 0.0294962 0.00858434 0.136034 0.0909148 0.0503251 0.0467791 0.0782104 0.0151488 0.0367488 0.0831765 0.0496613 0.016849 0.0909148 0.0120314 0.117059 0.00816951 0.00908091 0.0116913 0.00816951 0.0417277 0.0467791 0.0244954 0.0100133 0.158855 0.0782104 0.0877689 0.0877689 0.0588268 0.0120314 0.0181031 0.0698059 0.00858434 0.00816951 0.0607373 0.0248813 0.0698059 0.0909148 0.016849 0.00816951 0.117059 0.0485429 0.0496613 0.00797274 0.0364304 0.0417277 0.0467791 0.0698059 0.0244954 0.00760594 0.0118572 0.0496613 0.0116913 0.00797274 0.0157727 0.349234 0.0328244 0.037893 0.273099 0.0698059 0.0244954 0.0109898 0.0676886 0.221374 0.0181031 0.0151488 0.0118572 0.138655 0.0244954 0.0294962 0.0782104 0.0371116 0.00976872 0.0782104 0.00760594 0.0109898 0.0877689 0.0831765 0.0151488 0.0221905 0.00790366 0.0221905 0.021599 0.0118572 0.0157662 0.00790366 0.082177 0.221374 0.0136882 0.0824658 0.0923878 0.0503251 0.0120314 0.0244954 0.0328244 0.00790366 0.00858434 0.0118572 0.0588268 0.00816951 0.00797274 0.0102849 0.0151488 0.0244954 0.0877689 0.0606986 0.0588268 0.0831765 0.0909148 0.0328244 0.00760594 0.0294962 0.0824658 0.00908091 0.0221905 0.0195097 0.117059 0.0248813 0.0417277 0.0120314 0.0391044 0.0698059 0.0364304 0.0328244 0.138655 0.00976872 0.0606986 0.0100133 0.00878122 0.0151488 0.0136882 0.0824658 0.0503251 0.0226112 0.0294962 0.0116913 0.0485429 0.0588268 0.136034 0.0364304 0.0151488 0.0391044 0.00760594 0.00790366 0.0782104 0.0923878 0.0116913 0.0116913 0.016849 0.0136882 0.0923878 0.0157727 0.00797274 0.0102849 0.0485429 0.0503251 0.00816951 0.0120314 0.0157662 0.00790366 0.0607373 0.021599 0.0248813 0.0221905 0.0367488 0.00878122 0.0364304 0.0328244 0.0782104 0.0248813 0.0120314 0.00760594 0.0244954 0.0248813 0.00908091 0.236958 0.0676886 0.082177 0.0116913 0.0221905 0.0367488 0.00878122 0.277231 0.00858434 0.136034 0.0157727 0.0485429 0.021599 0.0676886 
</DataArray>
<DataArray type="Float64" Name="cell variable 6" format="ascii">
0.0038835 0.000857904 8.84138e-05 5.3719e-06 0.000885689 1.10661e-05 0.000251962 1.10661e-05 0.0019189 0.00127682 3.76475e-06 0.00051123 3.15261e-05 6.33494e-06 0.000187165 8.3838e-05 0.00576492 0.000410215 0.000187165 0.000187165 0.000251962 8.43313e-06 0.00035504 0.00035504 0.00364689 0.000410215 0.00151522 0.235078 0.000410215 0.294057 0.00364689 0.000115922 9.11938e-06 0.000115922 0.000885689 0.000410215 0.0019794 0.000110922 7.76673e-05 0.00439847 0.00202135 0.0038835 0.185318 0.235078 0.000115922 4.64493e-06 4.32387e-06 0.000857904 0.000349016 8.84138e-05 2.09522e-05 2.80904e-05 0.000858618 0.00403961 7.76673e-05 0.235078 5.74138e-06 4.69278e-05 4.32387e-06 1.38076e-05 0.000187165 0.432355 6.33494e-06 5.3719e-06 4.69278e-05 0.000251962 4.21468e-06 2.09522e-05 0.000394946 0.00202135 0.000110922 0.000380196 0.000696942 0.000251962 0.3398 0.0019189 0.0019794 0.000394946 0.000696942 4.32387e-06 0.000858618 5.81379e-05 0.000410215 3.15261e-05 0.000696942 0.00127682 6.33494e-06 4.64493e-06 3.76475e-06 0.0019189 0.00151522 5.81379e-05 0.0019794 0.00439847 9.11938e-06 0.674122 0.533485 1.32528e-05 0.000380196 0.000251962 0.000380196 6.33494e-06 1.32528e-05 0.00439847 0.000110922 1.32528e-05 0.00051123 0.000251962 0.000857904 1.38076e-05 0.000251962 3.15261e-05 3.81646e-05 7.76673e-05 0.298329 0.00576492 0.000251962 8.84138e-05 4.32387e-06 3.156e-05 0.00202135 0.00035504 0.00127682 0.00310284 0.00151522 7.76673e-05 0.00628005 0.000187165 8.43313e-06 0.000349016 0.000349016 3.81646e-05 3.156e-05 0.00151522 8.3838e-05 5.74138e-06 0.000394946 3.156e-05 6.33494e-06 3.156e-05 3.15261e-05 7.8448e-06 4.21468e-06 0.00202135 0.000251962 9.11938e-06 8.3838e-05 8.43313e-06 0.00628005 2.09522e-05 0.00035504 9.11938e-06 0.00439847 1.32528e-05 7.8448e-06 0.00364689 1.38076e-05 3.15261e-05 0.000251962 5.74138e-06 5.3719e-06 1.10661e-05 2.09522e-05 5.74138e-06 0.00035504 3.81646e-05 8.84138e-05 0.000857904 4.32387e-06 0.0019794 0.02163 0.208208 0.000187165 0.0019189 0.00439847 0.00439847 7.8448e-06 7.8448e-06 0.00310284 0.185318 4.21468e-06 7.8448e-06 7.8448e-06 8.84138e-05 0.000858618 0.000885689 8.84138e-05 4.32387e-06 0.00439847 2.09522e-05 0.000251962 1.38076e-05 5.3719e-06 0.00127682 0.000394946 3.156e-05 1.10661e-05 3.81646e-05 2.80904e-05 0.000394946 3.15261e-05 0.00202135 0.298329 8.84138e-05 0.000110922 0.000394946 0.000696942 5.81379e-05 3.81646e-05 0.000858618 0.000349016 7.76673e-05 0.000110922 0.000410215 0.0038835 0.3398 0.0038835 7.76673e-05 0.000187165 5.3719e-06 0.0441278 0.0038835 0.000857904 0.000696942 0.00310284 2.80904e-05 0.00035504 0.00364689 0.000885689 3.81646e-05 0.0038835 1.4406e-05 0.02163 4.64493e-06 6.33494e-06 1.32528e-05 4.64493e-06 0.00051123 0.000696942 0.000110922 8.43313e-06 0.0671729 0.00310284 0.00628005 0.00628005 0.00127682 1.4406e-05 4.69278e-05 0.0019794 5.3719e-06 4.64493e-06 0.00202135 0.000115922 0.0019794 0.0038835 3.81646e-05 4.64493e-06 0.02163 0.000858618 0.000885689 4.32387e-06 0.000349016 0.00051123 0.000696942 0.0019794 0.000110922 3.76475e-06 1.38076e-05 0.000885689 1.32528e-05 4.32387e-06 3.156e-05 0.432355 0.000251962 0.000380196 0.294057 0.0019794 0.000110922 1.10661e-05 0.0019189 0.185318 4.69278e-05 2.80904e-05 1.38076e-05 0.0566856 0.000110922 0.000187165 0.00310284 0.000394946 7.8448e-06 0.00310284 3.76475e-06 1.10661e-05 0.00628005 0.00364689 2.80904e-05 8.3838e-05 4.21468e-06 8.3838e-05 7.76673e-05 1.38076e-05 3.15261e-05 4.21468e-06 0.00576492 0.185318 2.09522e-05 0.00403961 0.00439847 0.000857904 1.4406e-05 0.000110922 0.000251962 4.21468e-06 5.3719e-06 1.38076e-05 0.00127682 4.64493e-06 4.32387e-06 9.11938e-06 2.80904e-05 0.000110922 0.00628005 0.00151522 0.00127682 0.00364689 0.0038835 0.000251962 3.76475e-06 0.000187165 0.00403961 6.33494e-06 8.3838e-05 5.81379e-05 0.02163 0.000115922 0.00051123 1.4406e-05 0.000410215 0.0019794 0.000349016 0.000251962 0.0566856 7.8448e-06 0.00151522 8.43313e-06 5.74138e-06 2.80904e-05 2.09522e-05 0.00403961 0.000857904 8.84138e-05 0.000187165 1.32528e-05 0.000858618 0.00127682 0.0441278 0.000349016 2.80904e-05 0.000410215 3.76475e-06 4.21468e-06 0.00310284 0.00439847 1.32528e-05 1.32528e-05 3.81646e-05 2.09522e-05 0.00439847 3.156e-05 4.32387e-06 9.11938e-06 0.000858618 0.000857904 4.64493e-06 1.4406e-05 3.15261e-05 4.21468e-06 0.00202135 7.76673e-05 0.000115922 8.3838e-05 0.00035504 5.74138e-06 0.000349016 0.000251962 0.00310284 0.000115922 1.4406e-05 3.76475e-06 0.000110922 0.000115922 6.33494e-06 0.235078 0.0019189 0.00576492 1.32528e-05 8.3838e-05 0.00035504 5.74138e-06 0.298329 5.3719e-06 0.0441278 3.156e-05 0.000858618 7.76673e-05 0.0019189 
</DataArray>
<DataArray type="Float64" Name="cell variable 7" format="ascii">
0.357275 0.264653 0.176526 0.0863829 0.262734 0.109939 0.214434 0.109939 0.306453 0.285858 0.0738515 0.24144 0.142821 0.091923 0.203114 0.174715 0.334908 0.233945 0.203114 0.203114 0.214434 0.10127 0.2268 0.2268 0.340125 0.233945 0.290041 0.481302 0.233945 0.531783 0.340125 0.185875 0.103782 0.185875 0.262734 0.233945 0.311423 0.184332 0.172124 0.360012 0.288948 0.357275 0.511928 0.481302 0.185875 0.0813708 0.0788486 0.264653 0.225806 0.176526 0.129973 0.139181 0.259721 0.337987 0.172124 0.481302 0.0886341 0.15552 0.0788486 0.116913 0.203114 0.58017 0.091923 0.0863829 0.15552 0.214434 0.0779382 0.129973 0.227704 0.288948 0.184332 0.230311 0.255368 0.214434 0.544906 0.306453 0.311423 0.227704 0.255368 0.0788486 0.259721 0.162493 0.233945 0.142821 0.255368 0.285858 0.091923 0.0813708 0.0738515 0.306453 0.290041 0.162493 0.311423 0.360012 0.103782 0.570965 0.633332 0.115625 0.230311 0.214434 0.230311 0.091923 0.115625 0.360012 0.184332 0.115625 0.24144 0.214434 0.264653 0.116913 0.214434 0.142821 0.148901 0.172124 0.543895 0.334908 0.214434 0.176526 0.0788486 0.142859 0.288948 0.2268 0.285858 0.329428 0.290041 0.172124 0.347352 0.203114 0.10127 0.225806 0.225806 0.148901 0.142859 0.290041 0.174715 0.0886341 0.227704 0.142859 0.091923 0.142859 0.142821 0.0989326 0.0779382 0.288948 0.214434 0.103782 0.174715 0.10127 0.347352 0.129973 0.2268 0.103782 0.360012 0.115625 0.0989326 0.340125 0.116913 0.142821 0.214434 0.0886341 0.0863829 0.109939 0.129973 0.0886341 0.2268 0.148901 0.176526 0.264653 0.0788486 0.311423 0.399197 0.488241 0.203114 0.306453 0.360012 0.360012 0.0989326 0.0989326 0.329428 0.511928 0.0779382 0.0989326 0.0989326 0.176526 0.259721 0.262734 0.176526 0.0788486 0.360012 0.129973 0.214434 0.116913 0.0863829 0.285858 0.227704 0.142859 0.109939 0.148901 0.139181 0.227704 0.142821 0.288948 0.543895 0.176526 0.184332 0.227704 0.255368 0.162493 0.148901 0.259721 0.225806 0.172124 0.184332 0.233945 0.357275 0.544906 0.357275 0.172124 0.203114 0.0863829 0.422896 0.357275 0.264653 0.255368 0.329428 0.139181 0.2268 0.340125 0.262734 0.148901 0.357275 0.118245 0.399197 0.0813708 0.091923 0.115625 0.0813708 0.24144 0.255368 0.184332 0.10127 0.46057 0.329428 0.347352 0.347352 0.285858 0.118245 0.15552 0.311423 0.0863829 0.0813708 0.288948 0.185875 0.311423 0.357275 0.148901 0.0813708 0.399197 0.259721 0.262734 0.0788486 0.225806 0.24144 0.255368 0.311423 0.184332 0.0738515 0.116913 0.262734 0.115625 0.0788486 0.142859 0.58017 0.214434 0.230311 0.531783 0.311423 0.184332 0.109939 0.306453 0.511928 0.15552 0.139181 0.116913 0.413855 0.184332 0.203114 0.329428 0.227704 0.0989326 0.329428 0.0738515 0.109939 0.347352 0.340125 0.139181 0.174715 0.0779382 0.174715 0.172124 0.116913 0.142821 0.0779382 0.334908 0.511928 0.129973 0.337987 0.360012 0.264653 0.118245 0.184332 0.214434 0.0779382 0.0863829 0.116913 0.285858 0.0813708 0.0788486 0.103782 0.139181 0.184332 0.347352 0.290041 0.285858 0.340125 0.357275 0.214434 0.0738515 0.203114 0.337987 0.091923 0.174715 0.162493 0.399197 0.185875 0.24144 0.118245 0.233945 0.311423 0.225806 0.214434 0.413855 0.0989326 0.290041 0.10127 0.0886341 0.139181 0.129973 0.337987 0.264653 0.176526 0.203114 0.115625 0.259721 0.285858 0.422896 0.225806 0.139181 0.233945 0.0738515 0.0779382 0.329428 0.360012 0.115625 0.115625 0.148901 0.129973 0.360012 0.142859 0.0788486 0.103782 0.259721 0.264653 0.0813708 0.118245 0.142821 0.0779382 0.288948 0.172124 0.185875 0.174715 0.2268 0.0886341 0.225806 0.214434 0.329428 0.185875 0.118245 0.0738515 0.184332 0.185875 0.091923 0.481302 0.306453 0.334908 0.115625 0.174715 0.2268 0.0886341 0.543895 0.0863829 0.422896 0.142859 0.259721 0.172124 0.306453 
</DataArray>
<DataArray type="Float64" Name="cell variable 8" format="ascii">