<VTKFile type="UnstructuredGrid" version="0.1">
<UnstructuredGrid>
<Piece  NumberOfPoints="    3328" NumberOfCells="    2442">
<Points>
<DataArray type="Float64" NumberOfComponents="3" format="ascii">
9.69855 25.9328 0 
12.3406 10.7708 0 
-13.8204 -16.2753 0 
26.2593 -41.5848 0 
-54.331 8.55299 0 
-53.7055 25.4064 0 
13.1632 -61.4499 0 
43.2028 18.0598 0 
41.016 -2.83634 0 
2.50906 -38.4893 0 
20.0142 -1.6287 0 
-4.38107 -49.4955 0 
0.101829 -46.0691 0 
39.8158 -35.9804 0 
20.9914 20.6402 0 
-15.5997 -61.0771 0 
-31.0258 26.7892 0 
-9.417 25.9522 0 
-36.8564 18.6482 0 
46.6658 -27.3613 0 
-5.60764 40.7131 0 
27.8026 12.2644 0 
40.0572 0.15071 0 
8.67019 0.94287 0 
1.95369 -45.5503 0 
-17.57 16.899 0 
-37.7663 -46.1902 0 
-20.7348 45.1409 0 
12.0353 -14.4272 0 
-0.781316 -32.3163 0 
2.44024 -27.2894 0 
-24.2305 -28.2691 0 
-31.2066 48.5341 0 
-42.645 -2.91621 0 
-41.9529 -21.6798 0 
-10.0365 -20.3041 0 
-19.6228 51.7581 0 
46.5741 22.2909 0 
-7.96314 6.55384 0 
-30.9354 4.31364 0 
-23.6 -29.0281 0 
-10.4295 -30.4371 0 
-0.623917 -15.2138 0 
-17.6437 -54.4696 0 
46.5327 13.5656 0 
-8.08585 33.996 0 
-18.0415 -0.922037 0 
-40.1536 47.1654 0 
7.81931 31.075 0 
-6.22323 -62.5735 0 
-37.4003 -46.6642 0 
-1.40658 -45.9336 0 
-37.1908 -13.6305 0 
28.9025 3.83704 0 
-37.4627 -35.422 0 
5.26226 -49.3411 0 
24.9128 27.274 0 
32.3781 38.3008 0 
19.2785 -39.5727 0 
8.43129 61.7793 0 
-38.2712 47.5062 0 
-52.2448 0.867149 0 
-7.38995 -63.0042 0 
57.8174 9.46766 0 
-16.5507 35.9247 0 
-19.7374 -49.1877 0 
35.2662 45.5847 0 
34.437 -26.2507 0 
35.2747 -26.0314 0 
-26.6591 17.8898 0 
21.2465 -5.88803 0 
-25.8295 54.4836 0 
32.8355 -52.239 0 
52.3744 -18.6959 0 
25.9133 4.13804 0 
27.73 -4.57682 0 
36.3923 -40.7214 0 
-26.2716 18.6266 0 
-5.74702 -30.7824 0 
51.4801 17.2096 0 
-50.9015 0.0399934 0 
14.3049 22.4724 0 
-15.2319 -15.2896 0 
-11.9736 55.8378 0 
-48.1562 23.6524 0 
1.81339 38.8979 0 
45.8074 15.2992 0 
-39.1832 16.5531 0 
-45.8136 31.1984 0 
-55.5506 -14.6267 0 
-30.7849 -18.001 0 
-42.464 -42.2211 0 
34.9196 48.0873 0 
10.9376 18.5514 0 
49.483 -27.551 0 
34.998 31.9592 0 
45.5697 -3.42844 0 
-48.4037 -1.89681 0 
33.7389 -47.281 0 
17.1388 -52.8885 0 
10.764 -44.1164 0 
49.6796 -7.98187 0 
-21.8756 35.6547 0 
-22.2779 -6.90075 0 
48.979 -5.57085 0 
-20.9104 -0.74615 0 
-25.68 -55.5314 0 
47.3114 -4.11773 0 
25.5871 -46.2395 0 
59.2471 -17.5915 0 
11.0265 -62.1942 0 
-26.1769 18.7488 0 
42.4097 32.2618 0 
41.8921 -12.2405 0 
23.8803 -56.0556 0 
-0.424389 -21.4213 0 
-27.7901 32.8039 0 
11.3174 -37.9607 0 
-8.3578 -34.7868 0 
58.4633 -7.94464 0 
47.2996 10.6767 0 
10.8876 -1.03683 0 
-36.7734 19.42 0 
-1.16181 18.2863 0 
36.9654 -44.051 0 
-15.1552 43.0366 0 
-24.3379 -32.6282 0 
27.1477 16.0487 0 
7.51202 9.52922 0 
-5.7599 49.107 0 
-26.3839 -47.7143 0 
-34.1895 -2.22878 0 
16.7261 6.87581 0 
-18.674 -28.2702 0 
57.2034 25.4296 0 
-32.2189 41.3908 0 
50.8729 -9.29442 0 
26.2741 -37.1167 0 
7.52935 13.3249 0 
-60.1963 -4.23354 0 
25.8566 41.4007 0 
-44.8803 9.60516 0 
17.6378 34.6862 0 
-9.16563 25.7643 0 
-49.9307 10.6344 0 
4.2026 49.3459 0 
39.8539 43.5308 0 
35.3781 -40.5383 0 
-39.0274 -3.46514 0 
-0.420004 38.2676 0 
26.6808 30.937 0 
60.4166 18.6806 0 
-41.599 -3.8063 0 
16.4101 -24.6272 0 
-34.2872 -29.5724 0 
-48.2081 -24.0015 0 
13.3177 29.1347 0 
30.1379 18.7985 0 
-37.6011 31.8746 0 
12.2237 55.2096 0 
-34.5373 -5.94931 0 
-19.4006 -22.4387 0 
-49.1244 -27.4265 0 
21.6268 -47.1911 0 
54.6998 15.4563 0 
34.0677 -10.54 0 
29.2588 20.2398 0 
26.945 -27.9218 0 
2.39818 27.5313 0 
-26.656 -39.2644 0 
40.9979 11.2202 0 
-41.0927 25.3908 0 
-53.0305 22.6224 0 
-19.6145 -40.4312 0 
9.37253 -12.1644 0 
-14.4803 29.908 0 
-21.8291 39.537 0 
-42.3404 4.70278 0 
35.9177 44.79 0 
22.3097 -13.1796 0 
-41.2602 36.9535 0 
0.608729 36.9494 0 
-43.0442 -31.687 0 
-3.06883 6.41944 0 
-17.5441 29.5623 0 
34.3071 -33.0942 0 
-56.3044 14.3407 0 
16.8171 45.9989 0 
16.3756 -15.7674 0 
-43.0401 -20.331 0 
37.3675 -44.3796 0 
23.872 8.98061 0 
-8.77338 -25.8815 0 
-60.0447 -6.70503 0 
-41.712 8.15782 0 
47.4632 -27.9046 0 
9.25626 18.8392 0 
-29.6046 14.6982 0 
5.52646 7.41955 0 
37.962 -17.9735 0 
9.8937 35.0008 0 
46.1234 -4.07823 0 
-22.0851 17.6823 0 
17.2385 46.9685 0 
-20.0977 -49.2084 0 
-2.31765 22.4696 0 
39.368 -38.907 0 
-21.5615 54.8972 0 
-2.96506 -7.84116 0 
0.166789 -21.3201 0 
-7.84257 -35.3894 0 
-29.9032 -49.6276 0 
-14.8226 42.0803 0 
44.7487 -24.8727 0 
10.1559 38.1442 0 
45.0067 -35.5556 0 
-10.6687 49.0587 0 
-6.58587 61.1128 0 
57.6284 -2.47457 0 
-7.27755 39.8833 0 
-21.364 29.8649 0 
-41.635 5.45829 0 
-13.292 58.3389 0 
44.8816 30.1544 0 
18.5735 37.7941 0 
27.8068 -48.6706 0 
44.7537 37.0902 0 
43.2108 -29.023 0 
-48.0878 -15.0442 0 
-7.37682 35.3648 0 
-3.44489 31.1115 0 
25.1074 -3.61286 0 
-46.3246 34.4514 0 
1.2142 -60.6321 0 
-39.9262 -22.1126 0 
-29.1947 -43.1494 0 
21.2092 37.3445 0 
-12.6645 10.404 0 
-37.0947 17.8496 0 
-32.3567 -25.6137 0 
-59.0761 -9.15153 0 
-2.07862 32.5683 0 
-29.1972 -10.5626 0 
-60.0069 -2.77428 0 
34.2089 -17.0932 0 
-48.6173 23.2604 0 
2.79714 19.2311 0 
-8.34877 -32.9515 0 
-14.7984 28.2622 0 
-43.2869 43.1951 0 
-35.9723 38.1277 0 
26.9321 -31.2453 0 
-54.5049 -28.1544 0 
41.7109 -16.2658 0 
11.0336 -31.8027 0 
-13.814 -35.7494 0 
-46.1746 -9.32702 0 
15.9144 -46.8692 0 
40.5455 -2.60921 0 
-22.4979 -21.7587 0 
-31.562 -48.7124 0 
9.00684 -11.6358 0 
-40.2066 25.392 0 
33.5393 -1.92229 0 
5.46964 -25.2056 0 
23.8956 -15.7637 0 
-13.2847 14.6224 0 
-20.7507 -31.9254 0 
-36.7022 39.6176 0 
41.7403 -22.0971 0 
-20.0511 41.2466 0 
-26.2974 -40.2743 0 
-22.6738 -3.36591 0 
-34.7821 -31.6045 0 
23.2229 14.4349 0 
0.0151138 -27.5557 0 
-24.3225 -33.8607 0 
-38.3012 31.7146 0 
-33.0747 42.9322 0 
-9.01864 -7.35978 0 
15.3991 56.1657 0 
-54.7422 0.890558 0 
-7.64905 -25.9105 0 
22.5621 -56.4111 0 
13.3388 -9.3192 0 
-53.3202 0.625747 0 
-11.9812 58.4347 0 
13.0412 49.6131 0 
21.3953 -52.1436 0 
59.7027 8.88059 0 
-46.8994 -20.7569 0 
-6.74969 -37.8054 0 
-4.86361 26.1681 0 
-26.1051 23.9828 0 
-42.1477 8.2975 0 
5.65713 5.46288 0 
-16.9088 -40.3864 0 
-0.297855 37.5898 0 
17.0231 55.8522 0 
-7.9445 -42.5915 0 
-12.0159 10.8184 0 
10.325 29.324 0 
-10.5677 -43.2837 0 
31.9301 14.6899 0 
6.05218 61.5695 0 
-25.2244 54.5388 0 
10.8073 46.1199 0 
2.25364 19.7286 0 
49.7941 32.4344 0 
32.0796 36.7854 0 
2.81021 53.5865 0 
-12.3916 50.8441 0 
-62.9702 5.29644 0 
18.3775 -39.5902 0 
21.1569 -7.41497 0 
-34.7735 6.19593 0 
-23.4393 18.5646 0 
-8.55049 -19.1225 0 
42.2505 -14.0522 0 
47.627 -41.4295 0 
34.3556 -32.1162 0 
42.241 -9.47536 0 
-5.00002 58.8131 0 
33.025 2.73929 0 
7.45321 -51.8573 0 
-0.765668 -4.29016 0 
-14.095 -11.8199 0 
9.80407 -31.3491 0 
25.7662 -42.5805 0 
-35.73 1.29345 0 
23.9027 -16.6585 0 
-28.235 -2.33854 0 
2.34785 -12.9035 0 
-34.6461 -36.6558 0 
26.1851 37.3533 0 
25.7625 -26.6011 0 
-37.6911 10.6988 0 
-58.4107 12.6225 0 
-59.3664 -8.70809 0 
-27.6018 22.6055 0 
-6.60786 40.3125 0 
-42.2732 -39.4768 0 
28.929 -53.2393 0 
60.1168 9.44804 0 
-25.5022 -55.588 0 
16.6724 55.8651 0 
-2.75527 24.7958 0 
48.7868 -21.1888 0 
-12.0275 8.11169 0 
37.4893 11.4449 0 
-41.9072 46.0518 0 
-18.9015 -49.5993 0 
-20.687 8.25893 0 
-3.57862 -7.9644 0 
10.4312 -15.6261 0 
-27.1534 46.7355 0 
49.4581 24.2232 0 
-0.631426 38.3992 0 
52.8451 18.9053 0 
19.0634 -42.4816 0 
0.005988 -54.8291 0 
-11.8196 -61.3554 0 
-54.738 -9.4495 0 
-26.5919 8.18605 0 
-60.3377 -11.2211 0 
4.29728 23.2033 0 
-11.0925 49.2116 0 
-24.5244 -46.8477 0 
50.3072 -5.05118 0 
0.954774 -0.817739 0 
-2.87848 -26.1014 0 
25.1534 6.53977 0 
-19.4175 -40.4812 0 
17.4474 41.7936 0 
4.9562 -26.2618 0 
-27.3609 -32.3181 0 
30.1297 -31.6273 0 
0.480339 -46.149 0 
-14.4044 16.2304 0 
4.19169 -7.7035 0 
37.7638 37.61 0 
-34.797 34.0674 0 
17.3108 11.7342 0 
15.6051 8.2066 0 
10.3047 -11.405 0 
-37.4108 22.1047 0 
50.7063 31.1055 0 
51.5833 -9.40599 0 
-12.3837 42.8035 0 
-37.8963 45.7068 0 
-34.7118 16.3588 0 
-6.46487 5.08567 0 
11.5232 39.3139 0 
-23.2732 -8.86045 0 
22.7723 -11.4588 0 
-49.7132 2.84961 0 
-8.50821 6.6278 0 
-41.5269 -26.2297 0 
-15.3144 41.6301 0 
61.991 -6.83713 0 
47.9666 -35.023 0 
-22.6372 -31.3143 0 
13.3385 46.5765 0 
41.9277 -37.0504 0 
2.97671 -39.5693 0 
-63.4474 1.21863 0 
33.948 -41.3866 0 
-30.9453 14.6424 0 
-7.09215 -51.571 0 
14.9616 26.809 0 
-48.8774 15.2176 0 
45.3212 32.6476 0 
37.8794 24.6001 0 
-34.0116 25.7489 0 
-53.3608 22.0652 0 
-19.8565 25.2809 0 
-7.26373 0.403122 0 
0.220988 11.9824 0 
-56.8508 -10.3507 0 
47.4022 -42.0885 0 
20.3019 -33.0589 0 
25.8929 45.2411 0 
9.48188 3.49349 0 
31.0237 16.8928 0 
56.301 23.5106 0 
61.2576 12.1384 0 
-49.1002 -32.5783 0 
-8.17523 -13.2327 0 
-46.7032 35.8113 0 
10.1963 18.2662 0 
22.6695 -36.4945 0 
42.7503 40.4761 0 
-54.7406 16.72 0 
-13.1917 10.9052 0 
-26.9119 -1.36393 0 
19.7707 -25.3872 0 
-9.88568 -1.76494 0 
7.68172 -8.26165 0 
-27.0413 41.2591 0 
53.0056 1.67531 0 
-14.1386 -23.5114 0 
6.33283 -38.7025 0 
-49.1253 -37.9509 0 
55.3215 10.6482 0 
-3.20501 -56.6701 0 
-32.241 -26.8016 0 
-14.1213 -9.44796 0 
-34.631 -30.1205 0 
-14.9973 -23.2668 0 
48.0864 23.7622 0 
-48.3029 -19.9569 0 
60.904 -7.94778 0 
41.6444 1.21901 0 
1.94206 48.1385 0 
-16.4686 -60.6436 0 
24.605 -26.7398 0 
22.2164 -36.7485 0 
17.3078 -25.3615 0 
-6.71178 -50.8035 0 
22.7761 12.9811 0 
-46.489 -14.1843 0 
-33.5294 -24.4967 0 
41.4846 23.0627 0 
-30.2796 39.4479 0 
-55.4932 16.1282 0 
15.8455 -29.5643 0 
18.6637 45.5297 0 
35.1077 17.0889 0 
34.8792 32.6105 0 
58.4034 -7.38905 0 
-38.3907 -14.0809 0 
-13.8159 50.922 0 
19.8935 -32.2802 0 
13.6271 17.3126 0 
13.8169 -3.64035 0 
-11.2835 -25.7457 0 
-1.51573 -27.2158 0 
48.7625 -33.8913 0 
18.97 -21.2452 0 
4.0378 29.389 0 
17.2952 45.4124 0 
-8.7514 -55.946 0 
16.8255 -24.7169 0 
-13.0985 -7.25049 0 
14.8467 -59.5095 0 
-9.7947 -6.71226 0 
-16.8809 -55.6086 0 
34.3284 -8.79299 0 
6.57586 -16.7287 0 
-10.1333 -31.3736 0 
27.1428 3.16044 0 
-34.9569 -20.5636 0 
-3.99472 40.7204 0 
[...]
<CellData Scalars="wall variable 0">
<DataArray type="Float64" Name="wall length" format="ascii">
0.607773 6.97777 1.45499 1.26959 6.88374 2.47421 1.23439 2.63514 3.45021 0.789121 4.18462 1.28589 6.47646 4.02866 7.32392 1.97204 1.43102 6.52535 0.726375 5.56372 3.31473 5.59861 1.60622 3.10456 3.79277 2.85947 2.87638 1.94031 5.62386 2.46043 3.91027 3.6268 0.906479 3.18698 8.27671 3.99233 0.686621 1.21809 3.99838 3.34408 5.64327 3.35315 5.62504 3.97774 5.91231 2.46043 0.326927 6.98785 1.2279 1.5221 1.54288 1.71155 2.61003 6.16259 4.21412 0.852609 3.40379 2.36459 0.368558 3.20171 4.63393 0.674554 6.58973 1.24179 0.893861 4.07884 0.850699 5.18035 5.52184 2.23612 3.33899 3.42874 0.195366 2.92361 4.93156 0.637452 8.92448 2.15272 1.71036 0.939139 8.78264 3.01015 1.37973 4.46619 1.37642 0.757681 2.57897 5.61819 3.64924 6.52467 2.53539 5.32353 0.665194 1.22586 0.168293 4.49289 3.48797 3.88581 0.283312 4.0167 3.35994 2.17119 7.13308 4.51192 3.47054 0.40007 2.631 0.50428 4.33822 3.74473 2.11186 6.98135 2.03487 1.77064 0.89262 5.32353 2.33681 1.59183 8.54072 2.33681 2.53539 4.39957 1.15926 2.36225 7.56008 2.16968 6.52691 2.54667 0.820962 2.55447 3.99614 1.08319 3.42871 1.45565 2.76061 2.09252 3.07321 5.09641 3.92239 6.22307 5.77873 1.28589 2.7532 0.731392 4.82821 0.797923 1.33929 2.42025 9.36129 0.761286 4.53559 2.33802 1.66998 4.74216 3.7823 0.947104 6.98135 2.80519 2.31478 8.43433 0.812167 8.77155 0.210235 3.37739 7.01108 1.13937 7.78153 0.885907 2.01662 5.28977 0.974537 0.710933 2.80519 2.11186 2.97149 4.57387 5.02463 2.98124 2.87638 1.58543 0.179001 3.32831 5.18145 2.02364 6.71355 3.77549 4.66183 5.44175 3.3806 2.07618 8.23907 1.28095 11.07 1.88754 5.38346 0.427045 0.476826 3.24893 2.27515 2.28203 1.12195 0.872335 11.07 1.96823 0.190059 12.0277 0.518994 2.63757 2.83676 5.84932 6.39056 2.6354 4.57387 1.37755 2.94062 7.73524 1.19893 8.23907 6.79963 6.09412 3.54969 2.90106 0.978794 1.76172 4.47287 4.63066 0.799829 2.75899 4.5059 4.51059 0.53128 1.45565 7.50309 2.17998 6.44705 2.01137 1.88475 4.69656 0.9678 6.66024 3.88581 0.569261 8.43727 5.49735 2.56729 2.88194 6.97777 9.28443 4.74421 0.114342 6.96949 2.6165 2.85692 5.0576 1.4137 5.65025 8.36616 7.23144 1.46448 4.69656 0.677229 7.44763 2.70921 1.43291 3.49763 5.77999 5.23163 3.51458 3.17711 1.00604 2.51732 0.944403 1.72884 0.871021 7.82502 2.37673 2.08642 4.41124 3.63341 0.800197 7.05885 2.31669 3.97894 6.1555 2.88284 5.64126 3.35315 0.623083 1.96452 8.64762 4.85334 8.23126 7.00256 0.477554 2.19109 2.9217 2.36722 2.74396 0.906014 6.38782 3.68424 3.11767 3.50464 6.39677 0.294963 1.20006 1.4155 3.56479 0.917978 1.89097 8.77155 2.87781 6.42052 2.74635 4.5059 1.8799 1.79374 4.28316 2.36459 3.54171 1.75679 1.72733 6.21846 4.13912 7.29958 0.705997 4.38138 1.404 0.988753 1.71966 10.6962 0.729736 6.63211 4.07105 1.23526 2.64525 5.86312 2.93643 0.521473 1.00604 8.01055 2.34089 7.86084 0.948606 1.81219 1.47239 5.77999 1.59183 7.56008 0.165776 1.01844 1.2697 2.07119 2.17119 1.25263 1.84909 0.735881 4.09649 4.27075 1.46065 8.53582 1.37642 0.906294 7.58473 0.973181 3.81524 7.45281 2.81441 9.27291 1.61912 2.61929 9.62411 5.03019 5.30776 6.63211 2.46933 1.23781 3.47753 1.32394 3.06634 3.60084 6.52691 0.133733 9.77737 1.02604 3.8264 6.95833 1.74407 3.60551 5.39463 1.39697 0.44826 3.18847 1.62838 1.10263 1.40683 3.50464 2.26332 0.731392 1.16427 1.67763 6.52684 0.164708 8.43727 1.75414 3.32831 6.19294 2.00865 1.09975 3.3034 3.62587 0.487251 0.612889 2.54915 6.74084 2.34678 1.43067 3.28318 1.96963 3.39354 5.75162 1.2434 4.05445 4.3504 5.99934 1.77064 6.5689 1.6341 5.52184 1.65564 4.44512 6.03347 3.93751 0.324137 1.9259 5.42219 4.24213 1.45958 4.72446 1.53513 4.97238 1.2279 0.168293 8.57657 0.534132 1.09975 1.65555 0.835437 0.129906 7.14064 2.46933 0.729736 2.29509 1.35463 3.51188 1.49567 7.7754 2.22958 3.51188 2.51977 2.99398 7.94862 0.426489 10.3867 1.72884 1.1788 3.97774 5.40738 1.39938 3.54171 3.40379 4.92406 1.19741 1.03137 1.34811 5.69568 3.25483 9.58826 2.67043 0.442769 6.31444 0.756014 0.389888 7.73524 2.2826 6.47339 0.820962 1.1806 0.906014 0.265767 7.31533 2.25926 0.637452 0.459329 0.869697 1.404 5.6847 1.33252 2.00241 0.493654 1.63007 7.94862 0.62585 5.3753 2.31146 2.28579 0.642074 0.259641 3.42493 5.96903 3.88657 0.445166 3.96949 6.49009 1.94283 5.61819 5.05964 0.779479 2.67581 1.63737 0.385375 3.69763 7.75126 0.397749 2.70921 5.43596 0.576117 5.30944 0.645398 6.6139 6.58973 4.97238 5.08829 1.54642 5.18303 0.811598 1.5221 1.47353 9.84883 0.756597 1.26389 1.30336 4.74861 5.54799 3.49862 8.53582 0.676855 9.58826 0.3931 1.10408 6.79963 2.07618 3.14674 0.542489 1.24996 8.5516 0.949731 1.53515 9.06164 0.693595 0.480655 3.98116 4.85318 6.19676 3.31097 0.571335 5.18035 6.24981 1.88754 6.24981 0.850699 0.613945 3.83812 5.38346 4.68805 1.64725 4.40912 0.512628 0.0312577 0.190059 6.72033 2.33144 2.30377 2.17065 0.499207 8.98709 3.72311 0.513316 0.885907 7.96555 0.829429 0.95772 4.87779 3.39354 3.96473 1.14849 5.44175 1.22021 2.05664 1.75344 0.435456 0.609391 9.86546 3.9416 7.96555 7.78153 0.757681 7.45281 0.685767 5.29519 4.7709 0.54134 5.38783 1.95278 3.8125 6.13214 1.00633 4.97937 1.17896 3.99327 7.3363 0.693595 2.83186 0.906343 1.25104 5.66803 0.194153 8.9047 4.0143 0.687071 5.38783 1.84913 6.64184 3.00371 6.44152 2.06618 1.33804 3.09614 1.67897 0.815972 7.96639 2.53923 7.13241 2.37673 3.50149 6.47646 5.77873 0.65701 0.798137 3.32793 4.90896 0.690533 2.34089 3.49763 1.17593 3.10667 0.426489 1.24693 7.13241 4.22834 5.76663 5.6847 4.38138 9.23654 4.71603 0.226762 1.99525 0.882184 7.62354 5.74153 0.602743 9.79733 0.11086 2.76061 0.53128 8.61204 1.27957 1.77673 6.60211 0.446086 1.70616 6.44152 1.43067 3.07608 4.86373 1.8799 2.75899 6.84946 1.67897 1.24693 3.69653 3.99614 7.32922 0.772915 8.64762 4.18722 0.916133 1.97204 4.71557 0.218018 0.133733 3.23799 5.91846 1.15584 0.127118 9.91508 1.13839 10.1177 0.638915 3.82119 4.0344 0.210235 1.89097 0.414916 3.74082 3.53963 0.149895 1.34718 0.954731 0.726375 6.89287 2.47099 7.835 0.670183 2.26289 6.4513 2.13132 6.49009 3.4453 4.14194 2.75599 0.567377 7.35765 4.89529 0.293822 8.07241 1.26389 7.16962 0.73479 5.50972 2.14195 1.44905 2.81711 4.51059 2.74635 4.32982 2.1764 8.61204 1.96072 5.28807 4.57 1.5754 5.70119 1.91284 8.22779 0.149895 3.23653 1.98641 3.03406 0.826801 0.334752 4.70867 6.64177 1.63404 10.1033 1.55713 6.83165 3.66971 0.26405 1.06287 1.00132 6.03347 3.93573 4.42853 0.855202 3.19769 6.83165 4.35072 0.483398 3.20278 4.84733 4.91394 3.96473 1.96963 0.369275 7.01108 2.90944 4.01504 6.1555 0.756597 6.77102 2.71513 3.57701 7.16962 3.35994 5.93743 1.54675 4.82967 0.990377 0.476826 8.14628 3.15797 0.728799 5.33931 5.68081 1.23781 7.7754 2.52387 2.11021 1.10263 5.14336 0.3301 2.08096 2.90944 3.37739 4.0344 7.07493 4.56876 5.05964 2.57897 0.54134 7.58565 0.800027 6.68321 0.915785 3.56479 4.08779 1.03137 3.91623 9.54647 0.459329 8.78264 2.27541 5.2265 0.627376 3.70915 3.46704 2.17065 3.04446 6.56876 3.09091 4.7089 0.540408 2.08541 2.51115 5.19501 2.34832 5.50394 3.99838 1.02027 0.978794 6.06604 5.65558 4.40912 6.23271 3.3828 8.13252 0.948537 3.76597 6.75116 1.41659 0.800197 4.01504 2.08096 0.615676 4.14017 4.43378 6.64177 0.682784 1.99525 4.83914 6.58029 1.11725 1.96072 6.69382 2.28089 7.63904 1.62838 2.75576 0.728799 1.20018 3.40057 5.04736 1.33741 2.55766 3.43663 0.65701 6.22307 2.0699 4.3568 6.19676 1.12195 1.83279 0.673539 3.3828 6.32922 2.12499 5.1642 7.09634 2.24304 5.65025 2.67685 2.54915 3.94021 2.71806 6.80592 4.72502 2.93988 1.61912 1.37755 2.97149 3.74473 0.766212 1.57974 4.53559 3.8267 0.690533 3.66492 3.73816 3.95362 0.678686 7.86084 1.08061 2.7532 4.18462 4.93984 7.31533 3.34408 5.65558 0.680975 1.60036 3.47753 2.16968 1.27989 1.06154 5.33931 2.75576 3.18847 0.593371 7.29958 5.30944 0.674554 0.571335 1.49287 1.60622 5.8298 0.642887 4.32895 0.326927 8.27671 2.60498 1.02149 4.27075 3.6197 0.623083 3.2467 7.95161 1.14905 2.26289 6.06 0.771999 2.52851 0.613945 4.07884 0.507366 2.08583 1.92855 2.60336 6.19889 0.493654 0.511604 5.87908 2.47099 1.13075 2.71874 0.44623 9.69379 7.62354 6.95444 1.27712 3.69383 1.24362 2.21445 2.44862 1.2697 5.59605 4.71557 7.32392 4.93505 1.13972 1.23439 3.50149 7.82502 4.2011 8.01055 3.17711 5.78233 2.94462 4.90134 2.5894 1.24996 2.12634 0.830968 4.17172 1.9458 7.18072 4.82821 2.26332 3.11767 0.413758 3.43789 0.425562 3.8125 0.79922 2.85692 4.5345 1.44841 8.54072 1.84909 5.27388 5.76555 2.1839 6.16259 6.80403 1.18066 1.30336 2.81711 7.49214 1.81219 5.85828 3.60551 4.07559 6.28492 6.32922 1.53839 0.863842 1.53515 0.710171 4.54012 2.27541 2.30377 3.78938 0.540408 6.45179 0.11086 0.612269 9.13548 1.59279 0.710171 0.083853 7.89274 1.24335 2.09252 0.865315 8.07241 1.06838 1.71284 1.04235 4.87209 2.52223 1.91667 2.14195 0.579769 2.87781 3.62792 1.45958 6.89693 2.33144 6.10884 2.83891 3.04446 3.78938 4.54012 1.59279 2.99869 3.72866 5.2265 0.083853 6.45179 4.7089 1.84077 0.564052 4.72502 1.99525 4.18722 1.96452 3.6197 4.09649 5.68424 0.835521 2.85946 4.30333 1.20006 4.86496 6.30048 0.511972 5.62386 5.65663 0.210908 0.0246876 3.01742 5.84932 3.2756 3.12399 0.799252 3.74082 5.31467 3.98588 2.97882 4.884 1.10446 6.85844 1.53839 7.09634 0.587333 5.76555 4.30478 2.02452 0.867293 0.114342 2.86536 5.03019 0.3301 2.70872 1.0714 8.23126 0.815972 7.32922 2.55447 6.47339 2.11942 0.49598 6.48512 5.86716 3.73816 2.70878 0.645398 4.32895 5.28044 1.64554 1.02604 1.37611 0.620487 5.44441 1.34657 4.1339 3.2756 1.91748 8.76261 2.61473 6.40474 0.630642 2.52387 1.49567 2.22958 1.63007 0.594218 4.88082 0.542789 2.60498 3.18698 0.723597 1.34135 7.3291 0.229254 7.36813 3.91027 5.91231 1.1788 0.944403 0.882184 0.682784 4.70867 6.77282 6.95444 3.70915 3.84806 5.21198 3.38755 1.19984 4.2539 3.54969 2.68926 0.170934 8.29994 1.92898 2.27515 7.80261 0.988753 0.869697 9.54647 4.16515 7.58473 1.67723 6.02641 7.69283 2.018 2.29509 10.6962 2.44592 6.89287 6.52535 2.73256 7.43877 7.20516 3.32203 1.0172 0.0246876 2.06249 6.39677 1.40683 2.11021 0.630642 5.41635 2.99398 9.5428 0.872267 0.665194 0.89262 5.99934 0.675867 0.62585 6.31444 4.43184 0.800027 1.19741 8.17601 1.27712 6.77282 0.334752 0.253638 2.81441 0.62424 4.13101 4.68805 0.51983 5.69568 4.96178 2.85946 1.30493 1.75679 3.93573 5.42219 5.33863 3.17519 0.55852 0.579769 5.50972 3.51119 4.32982 6.42052 2.68926 4.63066 3.57625 1.25104 0.653604 4.65184 0.70577 1.91082 0.648258 0.602743 2.1764 3.51119 0.73479 3.57701 8.28696 1.91748 5.31467 0.414916 2.44592 4.77047 1.01485 0.768138 8.5516 2.5894 4.06237 4.59263 0.445166 6.95084 0.449098 6.88374 2.69966 2.78154 0.648258 2.32122 3.40501 1.05172 3.31997 0.612269 9.79733 0.409908 0.754465 6.48512 1.36831 0.544702 4.39957 6.52467 0.62424 9.62411 3.62168 5.56372 1.90138 1.99543 1.34135 6.43053 0.532973 0.685767 3.81524 0.418846 0.581172 0.638915 1.86162 0.799252 5.63212 5.56204 3.23653 3.53963 0.229731 9.09572 6.06005 4.93505 0.871021 2.90574 4.44948 0.577841 5.3753 0.675867 4.3504 4.87209 5.31969 2.12634 0.542489 8.15187 4.27503 6.38782 1.1806 2.54667 3.60084 0.265767 9.69379 3.27825 5.04736 3.92239 1.08061 2.2826 2.94062 3.8267 0.761286 6.86346 0.765107 2.11942 0.713846 6.39056 3.01742 1.0172 1.43072 5.28807 1.11725 0.51983 6.72033 1.96823 1.28095 1.19893 0.789381 0.579777 3.69383 3.03406 6.30839 2.56729 1.10469 4.97937 0.725368 4.57142 0.418846 0.973181 4.16515 0.983147 5.6558 2.06628 0.589087 0.677229 1.47239 7.49214 1.74407 7.63904 1.70196 1.92855 6.82589 2.30269 0.695593 9.13254 0.723597 0.906479 4.34633 4.79516 6.43053 0.678356 8.98709 2.83235 7.43868 1.63737 1.42758 9.13254 1.74972 3.78892 3.69763 1.8775 4.93156 4.95275 1.27957 3.00371 1.31465 1.65564 2.51977 1.35463 2.018 7.73751 9.5428 7.33532 0.827299 6.74084 2.67685 1.4137 0.744392 0.170934 0.70577 2.83777 5.09641 3.46661 4.14017 0.226762 3.0405 2.08019 2.23612 1.6341 3.57311 1.41058 0.609391 2.14721 5.93159 1.04235 6.89719 1.33451 0.857756 4.06022 0.830968 5.31969 4.86589 1.17593 1.43291 0.397749 0.569879 5.78233 3.51458 1.91885 6.64184 0.205307 3.38755 1.61331 1.32394 1.60036 3.52112 4.63393 5.43551 2.75599 2.78604 3.21612 6.55371 1.37973 0.827191 2.49152 3.94021 0.612889 2.86536 4.74421 0.928997 3.47929 4.07105 5.30776 0.579777 8.98672 0.372065 5.28977 3.5892 1.24362 5.8298 5.59861 5.82007 7.33412 2.28089 6.85333 1.8775 0.576117 7.00639 2.06628 3.47315 4.51192 1.82726 1.34718 8.22779 8.13252 0.673539 2.88034 0.573862 8.90709 3.31409 7.08085 1.76161 6.80647 1.98641 5.56204 1.34844 1.45499 2.88194 6.30839 1.94597 3.18201 3.0405 4.71603 0.509741 4.84733 0.589087 7.00639 5.43596 7.44763 4.20685 2.90574 4.05445 8.12334 2.66929 6.34122 2.23822 0.324137 2.61688 0.28814 6.37981 3.64389 5.18145 1.75414 0.569261 3.48797 2.14098 1.14542 0.127118 4.50147 1.98054 0.229254 2.51732 0.521473 6.42062 3.97894 6.40325 2.57956 4.86496 0.294963 0.812167 0.369275 2.92361 1.71547 1.13848 2.35978 2.07824 1.77673 4.95275 0.469193 8.12334 1.2434 2.03487 1.44841 0.587333 5.1642 0.808869 0.789381 6.09412 1.10408 3.36335 8.98672 0.653604 0.906343 6.32523 1.82362 1.65555 2.00865 0.827299 7.45937 1.24179 6.6139 5.44441 12.6225 2.67098 3.70055 1.36831 2.70878 3.66492 4.90896 0.84962 5.06644 1.8379 5.65663 1.94031 2.98124 3.64389 4.35166 4.5345 2.6165 2.24304 2.49152 0.473857 6.85844 1.93248 5.86312 0.907403 1.74972 0.695593 2.1407 0.915785 2.15659 7.4565 4.88082 2.29988 1.13839 0.917978 0.824825 6.32523 2.83186 0.52644 1.19867 7.20516 3.62161 1.57561 4.44512 1.31465 3.09614 5.05175 0.686621 2.1859 5.75162 4.87779 4.76914 1.7892 0.52644 8.9047 1.75372 2.06618 1.70616 7.01034 1.95947 2.08541 3.17313 2.66278 4.06237 4.90134 4.65184 7.45937 7.33532 1.98054 2.72789 4.34633 3.6268 7.36813 3.62792 1.79374 4.86373 2.39601 4.72446 0.368558 4.28316 1.97323 7.23862 5.59568 2.18709 0.409908 3.64924 0.872267 7.73751 7.69283 1.71966 5.63898 2.15264 1.05172 5.61106 2.19109 3.26039 0.499468 10.4702 0.165776 2.36225 8.03982 1.15781 4.32713 2.67043 0.676855 1.46065 1.02149 0.542789 7.4565 1.8379 8.90275 0.835437 1.82362 0.824825 7.43877 0.210908 4.52904 7.74143 3.47054 3.47315 1.91284 1.85833 12.0277 0.0312577 1.8283 8.36616 1.88475 5.14336 6.52684 1.54133 2.34486 2.70872 1.79939 2.365 7.89274 1.99525 6.80592 8.03982 1.15926 0.544702 3.70055 6.5886 2.4547 1.76161 4.31587 2.1407 2.30269 6.14715 5.64126 0.220697 0.499468 2.47104 5.40738 5.62504 1.53513 2.39601 3.07608 2.34678 2.1859 2.26524 5.08829 1.34811 4.08779 1.4155 4.30333 4.96178 2.32122 1.91082 1.88 2.64901 2.36722 6.08062 2.54272 3.3034 0.534132 4.80595 2.55001 5.76837 3.72311 0.678356 2.67581 3.85301 0.317231 6.10884 4.90308 0.84962 2.14098 4.49289 7.14064 3.28318 6.84946 0.799829 3.68369 1.94597 3.20278 0.754465 2.18709 1.23526 3.47929 2.16578 3.95362 5.86716 2.25926 4.93984 0.789121 4.12512 8.92448 0.218018 0.0242219 2.97882 1.6485 3.31409 1.86795 1.37611 9.77737 0.524326 7.05025 1.54642 2.26524 1.7892 5.9824 3.20171 5.59568 1.13925 4.59515 0.642074 0.567377 5.43551 0.362079 7.00256 1.0714 2.34486 3.11851 7.95161 3.17313 5.50394 4.42682 0.710933 4.03083 4.0167 0.730734 4.33727 0.481919 1.2387 5.93743 2.03181 1.5505 7.35765 0.865315 0.546745 1.10674 9.09572 0.859954 10.2113 3.62587 2.54272 5.35271 1.75372 0.194153 5.9589 1.76172 1.02027 1.21809 5.05175 1.33804 0.841236 9.86546 1.41058 1.88039 0.879645 7.96639 0.49598 0.765107 1.60349 8.02153 0.193389 3.23799 6.95833 0.642887 7.33412 0.648556 1.84077 3.09091 0.43088 5.28044 1.15781 6.5886 2.67098 3.32793 1.39938 2.47104 0.910803 3.69014 1.01485 0.412449 0.747547 0.3931 3.25483 2.48485 6.07762 3.78892 0.907403 2.64525 4.2011 0.569879 7.75126 4.78014 6.42062 2.93643 1.93248 1.10446 4.13101 1.99543 4.89522 2.0699 6.23271 1.64725 3.40501 6.08062 2.9217 5.61106 5.66803 3.57625 4.47287 5.9589 6.69382 5.70119 5.63046 1.18639 1.16427 9.36129 0.512881 1.13075 2.13132 6.41811 3.08134 6.07762 3.7068 4.21412 3.52112 6.86346 3.7823 2.95821 2.02364 1.14849 0.841236 3.12399 4.1339 0.790065 2.69966 1.26959 1.34844 5.63212 1.88039 3.57311 6.5689 1.57561 8.66622 0.893861 12.6225 0.620487 1.86795 6.80647 2.4547 3.47344 0.507366 2.07119 2.44862 4.02866 0.954731 1.82726 7.13308 0.829429 3.9416 1.13937 4.42682 2.34832 1.13893 7.07357 1.25717 0.32052 7.58565 4.7709 0.9544 5.91846 0.193389 0.942202 2.55001 3.1961 4.82967 1.8407 6.75116 0.756014 8.17601 4.92406 0.852609 3.7068 2.48485 3.96949 2.78154 0.790065 1.34657 0.316657 3.78103 3.4453 2.56125 0.936681 2.78523 0.546745 1.91667 0.852528 6.44705 2.07824 1.58703 5.63046 1.5754 3.99787 6.60211 0.983147 6.02641 4.62668 3.01787 2.18657 2.31478 5.02463 2.6354 0.389888 2.74396 2.64901 1.97595 0.949731 4.59263 2.66278 4.03083 0.974537 0.372065 3.36335 2.31669 0.715659 5.33863 1.9259 2.23822 1.20647 6.40325 0.879645 8.66622 3.62161 3.99233 0.985977 4.22834 2.53923 1.17497 8.27001 4.44948 4.20685 0.469193 2.08501 1.38306 3.31997 2.15264 3.82873 2.99869 9.13548 0.95891 2.631 0.947104 0.472527 6.77102 9.84883 0.253638 10.1033 0.976623 1.79939 2.71806 9.27291 3.15797 5.70584 6.19889 4.75439 1.20018 0.627376 3.72866 3.82873 5.63898 1.46445 3.84806 2.10646 6.96949 0.867293 4.85334 0.362079 3.2467 0.674265 1.39697 3.46661 3.07321 1.24335 2.365 0.976623 1.63404 4.43378 2.78523 7.61733 2.63514 1.13972 6.06005 1.10674 0.835521 8.82861 0.412449 4.77047 2.73256 1.43102 0.916133 1.58809 4.30478 5.27388 1.25263 0.40007 7.74143 1.33716 8.29994 0.744392 5.0576 0.79922 1.95278 0.687071 1.30493 6.30048 2.57956 1.20647 6.34122 0.758038 1.72733 3.08134 2.78604 4.14194 3.78103 6.46488 0.910803 2.29988 7.3291 1.86162 10.1177 0.483398 7.73868 4.33727 4.25135 1.17357 5.21198 1.46445 3.26039 0.477554 4.27503 3.06634 1.61331 1.88 8.28696 2.71513 0.472527 8.43433 1.97595 1.6485 3.98588 0.473857 4.31587 7.08085 2.83891 0.317231 1.12546 1.60349 3.8264 1.64554 0.43088 6.56876 2.52223 8.15187 3.14674 3.3806 0.872335 1.85833 2.01137 0.852528 5.68424 0.735881 3.49862 0.747547 8.82861 4.0143 1.91885 0.680975 6.06604 2.90106 4.2539 1.33716 1.94283 6.2281 0.413758 4.35166 0.827191 3.01015 0.509741 5.74153 2.21445 3.5892 2.01662 0.513316 4.91394 5.39463 5.85828 0.948606 0.678686 2.16578 0.928997 9.28443 2.10646 0.863842 2.02452 1.58809 4.52904 0.826801 0.725368 1.00633 9.06164 0.615676 7.07493 3.82119 0.581172 4.57142 2.79197 1.43814 3.10667 4.86589 5.23163 10.3867 4.89522 1.90138 3.10456 1.49287 3.31097 4.3568 1.97323 6.21846 0.758038 2.66929 4.24007 2.02837 2.17599 0.936681 2.46552 2.15272 4.12512 3.45021 7.61733 3.40057 4.75439 2.60336 1.70196 1.42758 6.85333 4.25933 3.01787 0.720686 3.21612 0.487251 10.2113 6.06 0.670183 5.67538 0.511604 2.00241 8.84744 1.12546 3.85301 0.779479 4.56876 0.32052 8.02153 4.25135 0.730734 0.283312 6.66024 1.35534 5.56487 3.68369 7.50309 3.42871 2.83777 3.18201 2.88034 1.83279 2.28203 1.92898 3.91623 0.939139 6.90359 5.35271 5.76837 0.942202 3.76597 1.43814 1.93741 1.67763 6.41811 6.4513 1.14905 3.11851 1.54133 7.80261 3.24893 5.68081 1.06154 4.13912 1.8407 1.54675 1.2387 3.35641 3.17519 0.715659 7.05885 1.41659 0.985977 5.64327 1.27989 1.08319 3.69653 5.76663 0.385375 7.43868 1.43219 3.43789 6.2281 0.948537 8.90709 2.6938 7.23144 1.8283 0.512628 0.720686 4.62668 1.67723 0.906294 4.46619 6.55371 3.47344 6.14715 6.82589 2.08583 0.446086 3.99787 4.57 1.43072 3.32203 1.19867 7.01034 2.6938 0.573862 6.90359 1.71036 2.46552 2.56125 2.17998 1.46448 5.29519 0.532973 4.79516 2.72789 4.50147 1.15584 0.9544 2.79197 5.6558 2.18657 4.25933 0.859954 1.93741 1.44905 6.89693 4.24213 6.98785 2.1839 3.04505 5.9824 4.76914 0.95772 1.25717 1.82269 0.205307 1.84913 6.13214 0.425562 1.43219 2.83235 0.499207 3.46704 1.19984 1.22586 0.990377 3.1961 4.80595 8.57657 5.87908 5.67538 7.835 3.83812 2.52851 5.70584 8.14628 0.427045 0.316657 8.76261 0.768138 3.69014 6.46488 3.62168 2.61929 2.93988 0.564052 0.648556 5.82007 3.31473 0.0242219 9.91508 1.14542 4.78014 4.884 1.33252 9.23654 0.705997 0.593371 0.44826 0.674265 0.771999 8.84744 4.35072 1.55713 0.55852 3.35641 0.481919 7.73868 4.43184 0.442769 4.32713 2.15659 6.68321 0.220697 2.88284 0.772915 5.59605 1.01844 10.4702 5.06644 4.90308 0.129906 8.90275 
</DataArray>
<DataArray type="Float64" Name="wall variable 0" format="ascii">