<VTKFile type="UnstructuredGrid" version="0.1">
<UnstructuredGrid>
<Piece  NumberOfPoints="    2567" NumberOfCells="    1894">
<Points>
<DataArray type="Float64" NumberOfComponents="3" format="ascii">
-30.8343 -24.0285 0 
4.76243 5.5395 0 
25.0142 -3.14264 0 
0.693035 -31.4991 0 
-13.4212 24.3159 0 
-33.5109 13.2449 0 
2.57198 47.1398 0 
-12.1202 53.5845 0 
-25.7345 32.7138 0 
38.3556 -13.5013 0 
-31.73 6.48164 0 
22.4768 -11.5376 0 
-6.2755 20.0896 0 
3.32831 -31.6932 0 
34.2505 12.6689 0 
-52.9592 10.403 0 
-1.76598 -43.8996 0 
41.5329 4.69762 0 
-15.9679 -48.6198 0 
15.0228 -10.3838 0 
27.1016 38.9499 0 
21.9045 25.6435 0 
-25.88 -21.6635 0 
2.45156 1.15669 0 
-18.6269 36.261 0 
28.0406 -4.86423 0 
5.57609 -50.7438 0 
-14.1507 -27.5831 0 
-28.1063 7.52248 0 
-32.6679 -6.61028 0 
36.948 32.3317 0 
-43.5657 30.3619 0 
-24.3507 40.498 0 
-17.0614 31.5024 0 
-6.69989 44.6701 0 
-9.51986 43.8295 0 
-7.82858 18.063 0 
-4.6558 25.5851 0 
40.1365 -32.6143 0 
-49.0023 7.89286 0 
27.1573 35.9891 0 
-10.9082 -40.8082 0 
19.5674 -31.3006 0 
-21.5071 33.9557 0 
-47.674 -0.86965 0 
33.4196 -10.9098 0 
-6.44061 -0.83015 0 
-13.9128 17.0243 0 
-30.4284 43.3936 0 
30.536 37.6708 0 
-45.2606 -21.1499 0 
12.7748 37.7672 0 
-12.3032 -5.08772 0 
21.2876 -40.118 0 
-12.7733 -12.7525 0 
-21.9007 3.21038 0 
-4.5556 -26.2367 0 
-38.4492 29.4312 0 
50.8063 -5.38869 0 
8.90303 26.8841 0 
1.52582 -49.8223 0 
-8.17433 -46.8625 0 
25.7585 -24.9766 0 
46.7402 10.9159 0 
-30.6576 16.5048 0 
4.52349 28.5424 0 
45.8599 17.9707 0 
-33.2989 -14.2237 0 
44.3821 -24.8479 0 
6.55176 43.3139 0 
7.87857 -2.35563 0 
-27.6843 -20.3594 0 
36.4657 -36.4419 0 
-46.0886 20.5353 0 
50.6835 -7.85618 0 
-23.9977 -9.54796 0 
47.7024 -17.2778 0 
50.4985 -2.13948 0 
13.0409 -23.1565 0 
0.174186 39.0357 0 
-4.67644 49.6035 0 
16.6928 -19.4692 0 
-6.41424 -5.20557 0 
24.4681 34.526 0 
27.8208 14.2856 0 
42.9986 -4.88796 0 
15.797 47.8305 0 
-0.47381 29.3013 0 
19.8493 40.8894 0 
-21.2158 30.2627 0 
33.7583 34.2105 0 
-15.1727 -14.9321 0 
12.9967 16.8758 0 
-34.8423 -18.6063 0 
-48.9274 -9.24517 0 
19.6896 -36.3797 0 
15.3329 -1.11362 0 
48.1504 -12.4049 0 
-16.6704 49.831 0 
6.69638 -18.8375 0 
-12.7931 -41.2599 0 
-26.6975 11.3182 0 
25.8662 7.29531 0 
-33.77 3.16483 0 
32.6442 -10.3711 0 
23.4462 44.9153 0 
-32.274 -2.69328 0 
49.6046 7.12382 0 
-39.8934 16.8689 0 
-40.8989 -27.6396 0 
40.7986 10.9856 0 
-9.29349 6.75751 0 
-10.9811 -49.8704 0 
-47.4434 4.4534 0 
-11.3272 48.2601 0 
39.573 3.02633 0 
-20.4728 -46.2802 0 
19.7791 -44.6875 0 
25.6921 -28.4008 0 
20.8667 -2.64487 0 
16.4543 42.6202 0 
-13.6193 42.3778 0 
-2.69226 43.7238 0 
21.4748 36.5626 0 
-16.9009 41.9002 0 
-21.7372 24.9687 0 
5.43921 -44.411 0 
23.6723 -21.622 0 
16.4447 29.5614 0 
43.4851 -0.0769153 0 
4.66677 37.6504 0 
-11.7228 -1.67793 0 
-23.3211 -17.9977 0 
-6.84284 -9.06042 0 
35.8007 21.2052 0 
42.6746 -30.4948 0 
17.9815 -2.44709 0 
43.3421 20.804 0 
39.1452 29.1672 0 
-15.4604 -42.3459 0 
-41.8504 -17.705 0 
11.603 38.5289 0 
6.68393 -50.4538 0 
-2.77815 7.97971 0 
26.578 24.1538 0 
1.93222 16.9195 0 
-20.3165 -40.7868 0 
41.5827 24.0221 0 
22.1362 11.5889 0 
6.67891 22.3566 0 
-35.246 12.3352 0 
-34.5457 31.3169 0 
33.4099 17.5112 0 
24.7974 -34.5904 0 
0.846731 38.6752 0 
34.9119 29.7354 0 
5.16021 11.0958 0 
10.8634 6.39734 0 
36.006 -28.6595 0 
-1.95499 -38.0511 0 
-43.8416 3.08709 0 
-7.55216 -7.88979 0 
25.8803 31.8817 0 
-24.2091 20.0052 0 
-29.3852 -17.1341 0 
-45.1534 14.6853 0 
49.0402 -19.7641 0 
-38.6795 -20.6744 0 
-25.5426 39.8874 0 
-9.29262 -13.8431 0 
28.9583 11.6851 0 
-6.47091 -51.8798 0 
-19.2129 8.13502 0 
27.6226 7.81688 0 
8.45758 39.2922 0 
50.2985 -8.41577 0 
-7.21274 14.295 0 
-37.8102 -23.2699 0 
12.8745 15.982 0 
7.55457 -4.14488 0 
10.8143 -48.9757 0 
-41.734 23.641 0 
-24.5481 12.1336 0 
-2.04915 -26.6268 0 
-23.3189 26.2972 0 
24.505 -14.5285 0 
26.5222 -21.4551 0 
5.44681 15.5741 0 
-18.6362 25.9341 0 
-14.2097 -6.82527 0 
-39.6157 36.5045 0 
23.6848 40.9769 0 
39.2183 -19.7151 0 
-11.3722 -36.6787 0 
29.9813 20.5162 0 
-43.4653 -0.439586 0 
22.6873 18.5395 0 
-10.3372 6.52961 0 
28.3327 -10.1628 0 
50.6117 2.03325 0 
44.4231 15.7126 0 
2.81053 50.0856 0 
-1.06271 -51.7835 0 
-11.8366 24.6749 0 
29.7207 41.0409 0 
-13.376 53.0835 0 
-43.9013 -24.4441 0 
32.8709 -31.1221 0 
-1.15803 -3.26682 0 
38.447 -25.5489 0 
11.0556 -30.0807 0 
-1.88806 -52.5761 0 
25.0847 18.805 0 
-0.598668 24.8956 0 
-15.8621 37.1657 0 
-11.6017 -23.978 0 
31.3819 -17.7301 0 
37.539 19.955 0 
8.65704 33.0144 0 
39.6304 -8.08947 0 
-8.66629 10.6698 0 
-13.4011 1.86802 0 
19.1172 -25.3057 0 
-17.7704 45.0753 0 
7.0189 14.1277 0 
-42.7058 -7.39369 0 
-34.1752 -28.8777 0 
-2.43412 27.3318 0 
23.1998 -17.0968 0 
20.88 -22.7563 0 
-28.1821 -12.6075 0 
-41.865 -28.7033 0 
-33.8095 1.29838 0 
-17.817 39.1336 0 
1.63973 44.3058 0 
-48.4534 -13.6417 0 
-25.1952 -5.48112 0 
26.7272 -43.4702 0 
-12.9707 5.80348 0 
10.2523 44.4673 0 
15.2359 -29.0182 0 
-4.41186 -33.5755 0 
-15.6003 27.0717 0 
-20.4652 -0.944617 0 
11.4818 -6.05732 0 
2.73453 44.0033 0 
1.6088 7.63893 0 
-2.09779 -11.1812 0 
-37.8028 23.444 0 
36.8921 2.98505 0 
-34.5161 -36.9947 0 
40.6655 -31.2995 0 
-19.9806 42.3812 0 
41.4521 9.00827 0 
3.53389 -10.3463 0 
20.0853 -19.6015 0 
29.8609 -41.0495 0 
5.51778 -16.8951 0 
14.2695 -1.87978 0 
-29.8064 -36.2755 0 
-35.5176 32.1176 0 
17.9216 -38.0758 0 
-13.7921 8.24908 0 
22.4375 -17.6628 0 
7.10848 -36.442 0 
46.6008 -21.912 0 
-38.3241 4.4029 0 
0.809096 22.1286 0 
-27.5422 36.1217 0 
26.7934 16.9069 0 
48.0789 -21.3799 0 
16.9741 24.3072 0 
-18.2295 47.568 0 
-32.3386 -22.6917 0 
5.75547 34.2786 0 
10.4984 -35.3026 0 
-9.20115 37.6269 0 
-12.783 10.1796 0 
26.8282 43.3416 0 
-43.9722 11.7293 0 
41.7459 -5.6003 0 
8.2757 48.0945 0 
-36.1937 -18.1453 0 
19.4054 16.7469 0 
14.0611 -39.052 0 
48.3307 0.249516 0 
46.7918 -3.81196 0 
13.065 -32.8129 0 
-49.4991 -6.49319 0 
20.5199 2.99471 0 
44.5033 -17.9303 0 
-38.8238 -1.73161 0 
-1.8356 8.57923 0 
-27.3234 -12.5835 0 
33.7171 10.6485 0 
21.4703 -4.68034 0 
16.3997 36.3677 0 
-1.9235 13.5551 0 
-30.4414 -9.5678 0 
-2.4125 -14.6832 0 
33.0683 -1.52239 0 
44.1005 -10.736 0 
28.0863 -6.29782 0 
-2.80488 22.8826 0 
2.20063 21.3756 0 
-35.0538 27.1896 0 
-47.7963 15.8821 0 
-30.8435 24.0855 0 
17.441 10.942 0 
10.7996 12.7352 0 
-42.1872 9.45827 0 
40.3819 15.3765 0 
-35.2187 -30.2511 0 
37.625 38.5506 0 
-36.6895 6.71733 0 
36.461 -6.17533 0 
4.53727 -38.5128 0 
-10.3706 31.9685 0 
-39.703 -9.57807 0 
29.2688 -26.5298 0 
-29.5174 -31.511 0 
-7.70377 38.5759 0 
-33.8588 20.3283 0 
-42.5201 13.0419 0 
34.0544 31.8854 0 
42.2992 -27.2857 0 
-51.1973 14.7837 0 
-27.5886 -28.7379 0 
36.9795 -18.77 0 
-28.022 39.9752 0 
8.39605 -4.77198 0 
-35.8441 -25.9485 0 
10.9029 -45.6062 0 
29.3363 3.98129 0 
-43.9764 25.0304 0 
-12.4199 43.0902 0 
31.7576 -28.8313 0 
-21.9848 13.6107 0 
40.9036 25.9499 0 
16.8954 -26.9699 0 
17.0403 -43.4343 0 
-29.1833 29.0693 0 
10.6442 -18.4171 0 
-47.7212 13.0955 0 
-24.4486 -23.5255 0 
-8.51326 25.6887 0 
-28.9222 44.0222 0 
-25.4468 -3.03185 0 
-5.60642 2.67761 0 
-8.94503 -23.5513 0 
46.868 7.45113 0 
-6.2243 -15.8582 0 
39.04 -21.383 0 
-23.3543 -29.735 0 
-28.9872 22.5842 0 
-9.81407 16.2601 0 
-19.5205 10.7232 0 
34.2072 24.2242 0 
-3.19151 50.291 0 
-16.9419 20.339 0 
11.8146 -40.141 0 
-41.0285 26.3727 0 
-46.8524 -6.13862 0 
-26.344 24.6869 0 
-17.2121 -20.0311 0 
35.5678 40.8514 0 
-8.51732 53.0267 0 
20.9867 12.8929 0 
23.2796 8.35053 0 
-0.0699798 -0.700667 0 
41.4088 -16.7482 0 
-8.81073 -22.5222 0 
-27.9329 -0.199745 0 
9.72705 24.5319 0 
1.69016 -8.6935 0 
-13.4504 -43.7817 0 
14.8486 -16.6825 0 
0.197652 -16.1475 0 
-5.75235 4.89824 0 
-18.2165 -33.4327 0 
-27.4024 3.70504 0 
-39.8202 -31.6141 0 
44.0705 -7.19707 0 
30.1733 -34.6413 0 
21.3146 45.3011 0 
-4.64862 -42.5381 0 
28.1936 29.1639 0 
-19.3945 -36.9292 0 
-4.03868 15.0585 0 
18.1077 32.9789 0 
13.936 -44.5072 0 
-4.21639 -52.365 0 
8.46158 -29.6757 0 
47.0242 3.7342 0 
32.4853 -21.5981 0 
-17.0906 0.634031 0 
-21.9312 -10.9323 0 
32.4752 27.1331 0 
-37.6692 -6.45129 0 
-2.09705 33.4041 0 
33.7204 -38.6457 0 
-38.7416 22.172 0 
19.8914 -8.88512 0 
-48.8577 6.33834 0 
-47.2464 -17.5169 0 
-21.6899 0.114628 0 
-7.69589 -31.593 0 
4.24117 49.5769 0 
18.5557 -47.3436 0 
5.04387 10.3839 0 
3.39342 28.6052 0 
-36.4507 16.2685 0 
12.7275 8.48294 0 
-37.5488 -30.6584 0 
-15.6656 -22.4216 0 
-4.64055 -47.2035 0 
-37.2628 -34.0959 0 
-45.1935 6.59703 0 
27.8721 -40.5453 0 
15.9987 -14.182 0 
14.0314 22.4669 0 
29.4749 21.3928 0 
-18.4475 -14.9974 0 
-7.15601 48.6884 0 
-41.8522 34.8879 0 
-24.4986 44.1832 0 
-30.5218 27.7379 0 
11.4635 30.2173 0 
-16.8017 13.8987 0 
3.63932 7.28237 0 
8.06943 -13.1497 0 
22.7375 -30.9434 0 
-19.7646 6.97371 0 
24.2696 23.7435 0 
-9.13901 -1.30772 0 
25.6777 -38.4346 0 
-18.6695 -17.5518 0 
29.5165 -27.4412 0 
-9.50135 14.3055 0 
-7.44658 33.798 0 
-12.8721 30.7864 0 
33.1912 -13.2335 0 
11.9359 -23.4837 0 
-1.52251 -47.078 0 
-33.5065 35.9649 0 
1.03341 -45.2587 0 
-43.2997 -12.921 0 
-42.5022 34.0842 0 
-34.38 -9.39507 0 
1.12205 -38.6579 0 
-4.92173 -36.1373 0 
2.05978 -52.0349 0 
38.0338 -30.527 0 
-43.8774 -9.37664 0 
-5.63282 -20.3217 0 
7.98693 -41.1415 0 
50.7651 -13.946 0 
-35.9549 10.6284 0 
-4.13439 39.9126 0 
8.89645 4.21174 0 
-20.2071 17.1909 0 
-24.4517 -43.1918 0 
16.3525 18.5713 0 
22.0166 32.2456 0 
4.16711 35.211 0 
4.98873 -11.0859 0 
-15.6113 21.0143 0 
27.0958 -36.8472 0 
7.61665 -25.9134 0 
16.2862 -31.1911 0 
-22.749 -25.3817 0 
3.01473 -22.8591 0 
-17.5773 -25.7102 0 
-14.4101 37.9643 0 
32.8688 -37.7887 0 
-49.6687 -0.361927 0 
0.586944 -9.41507 0 
16.6862 -11.4555 0 
-1.07992 30.3616 0 
8.13825 -45.1776 0 
48.6733 9.39087 0 
-14.7037 -34.5744 0 
-15.451 47.4844 0 
-4.58029 -2.79136 0 
13.3321 43.4123 0 
-36.3352 37.6758 0 
-41.6265 5.83377 0 
13.322 49.0262 0 
2.22318 -6.19135 0 
7.40474 50.212 0 
9.34102 0.66582 0 
-42.9918 -1.8117 0 
-2.16946 14.8358 0 
14.8476 7.62935 0 
[...]
<CellData Scalars="wall variable 0">
<DataArray type="Float64" Name="wall length" format="ascii">
2.46934 1.79167 2.69874 2.42813 5.91285 0.899463 2.4318 3.01139 3.02642 4.67216 5.11756 2.43118 2.77136 3.65815 3.12659 7.96675 0.867593 3.64181 3.41082 3.24632 3.35996 1.01489 4.8891 1.41151 4.85115 1.88699 3.51591 4.02622 0.776145 4.36252 4.56006 4.02622 3.20251 2.77492 1.67236 1.41885 4.16282 3.7149 2.30024 1.63812 2.82373 2.98733 2.98633 1.23706 2.86525 3.92893 4.52791 4.10338 5.71915 3.2648 3.55048 3.53993 1.77932 6.88807 2.89534 4.30215 0.695948 4.62402 4.02359 5.60033 4.63851 7.22577 2.80753 4.07826 3.96816 4.39113 0.690783 2.61667 7.61462 1.90706 2.89534 2.89696 4.16751 3.94461 3.9741 3.99201 1.16255 2.23399 3.91319 3.02229 2.7862 7.97163 4.17031 1.90592 3.05311 3.12659 2.14516 2.18991 3.6996 6.36709 3.42358 0.779947 4.12497 3.75139 2.39528 2.31029 3.45204 6.40176 3.40715 2.93916 3.11589 2.31315 1.33195 2.92754 3.44302 3.76048 4.34206 2.82836 1.40192 5.23654 1.50733 2.94527 1.40846 1.97415 3.79258 3.85953 3.43068 4.01697 1.23037 2.95311 3.50045 4.26416 3.50909 6.52594 1.77434 1.60283 3.31467 4.22204 4.12043 4.8891 4.38501 3.4888 4.06638 1.99044 1.46285 2.43327 6.39454 1.14848 9.7325 1.47204 1.65171 10.8081 4.27426 2.53452 2.57335 3.36513 0.373868 5.316 1.26045 0.382664 4.00264 3.00879 3.98238 8.37872 1.91198 5.29448 3.79686 2.28066 4.91333 4.43152 4.11259 2.93916 2.93949 3.14747 3.1473 6.09765 1.60283 3.73493 3.24632 4.08721 3.34864 3.0208 0.899463 3.16159 2.25857 2.71804 0.743073 0.282704 4.67216 2.89839 6.42374 3.59972 3.87767 2.91379 7.15579 3.28566 1.89237 3.31241 4.00414 1.17731 7.15579 4.50657 3.18058 1.82103 3.08327 0.655517 1.60872 3.00564 2.98358 0.51539 4.63851 4.12985 2.18631 4.5286 5.27519 1.9585 2.8676 0.337955 2.92396 2.43668 1.68073 7.06401 2.74921 3.94461 3.42056 2.11738 3.16983 2.7324 4.67651 4.18826 0.612812 5.01079 0.139331 1.25505 4.0731 1.90086 5.08186 1.9939 4.12497 5.60613 6.51369 3.63645 3.77231 4.84369 1.32343 3.96814 4.46458 6.39454 3.76518 3.67845 3.08834 3.43068 0.805246 0.732332 6.8376 0.761231 1.44387 2.38215 3.44162 3.53993 3.24865 4.12985 4.07826 4.33667 3.25581 3.27214 8.48233 2.79915 2.71893 5.52885 3.61086 1.91766 0.743073 4.39104 3.5544 2.30756 0.387456 6.69479 4.729 1.58177 2.27343 3.95824 1.82778 5.39886 3.14934 3.37477 3.34517 2.55645 3.50045 6.09765 3.56581 3.4888 0.805246 3.85953 5.46511 1.89237 3.39852 2.18215 2.03121 4.21836 3.8754 1.84491 3.29589 3.43931 4.47579 2.07645 3.08593 5.65215 3.13537 3.90089 1.13982 3.0515 3.99201 3.4112 0.864177 8.93226 1.63985 5.91662 0.690783 3.74926 1.43219 4.43865 5.30489 4.0731 4.86109 2.05393 2.38229 2.40706 4.0452 2.31029 2.33136 6.90749 1.75204 1.26122 1.53556 4.93572 2.88789 1.73462 3.98238 4.66041 3.45522 3.29753 3.37477 3.34864 1.80062 3.86215 2.60447 6.81461 3.08327 1.80823 3.98507 0.344955 5.59071 2.3424 2.94714 3.93694 0.689655 3.91319 5.00501 1.60649 6.08079 2.79987 2.52909 3.00657 1.60649 0.932231 2.99852 4.48088 2.56133 2.61707 4.48088 3.13564 2.69874 8.01615 2.75518 1.15273 4.14114 3.14526 3.45522 2.87934 4.80792 1.60872 7.52645 3.25761 2.5753 2.64689 4.80533 3.09345 3.08593 2.15735 3.65721 3.44283 3.82615 2.19717 4.50023 2.64437 3.1031 3.08843 7.65596 0.726261 3.05089 3.45241 3.58065 0.687961 6.93133 2.52909 3.08892 2.96989 3.22051 2.39975 3.02229 3.25589 3.14128 0.349518 7.41075 1.73037 3.84173 3.48372 1.78631 4.59271 3.00564 4.80533 3.14192 4.61253 0.5144 0.819923 2.69971 2.84137 3.30487 2.73065 10.9879 3.21284 3.08843 2.93861 2.23178 6.30463 1.23037 0.832466 2.48546 3.55218 4.60141 1.41008 8.94644 3.3731 3.04724 3.79139 4.68592 2.19501 2.35094 3.14934 3.30147 3.01587 2.75243 2.80433 2.63015 1.4571 4.1895 2.98882 1.75204 1.53897 2.91623 2.91208 2.55239 3.12617 4.68616 1.31503 2.64355 8.54847 1.18462 2.05653 7.75479 0.98163 1.58108 4.26191 4.1556 1.79814 2.91623 1.36306 4.0134 1.97415 7.45964 1.10814 3.52066 1.00461 5.61912 1.63812 2.86744 2.94714 2.94961 2.77492 1.24997 3.4646 3.58456 8.73336 0.612812 1.59142 4.05535 1.77932 3.44162 4.90979 2.56914 2.57747 6.5532 2.85811 2.68953 1.14279 6.14986 3.61204 2.12439 4.50023 2.24375 4.5732 0.915138 1.18623 7.77828 3.85387 2.31775 6.01584 3.87256 4.15804 4.07287 3.04276 5.33993 0.915138 3.99177 8.54847 2.64355 3.58289 3.93593 3.49897 2.23298 4.70659 2.92233 4.8985 3.6996 4.4683 6.08079 3.00657 3.13877 3.86215 2.79987 4.4683 1.80823 1.82103 7.53685 3.08892 3.40715 0.380645 3.82928 5.29448 4.65185 1.78923 3.54642 3.87256 3.11692 3.15093 2.52299 6.26405 4.07758 3.43745 1.50166 6.0114 2.38229 4.72985 4.729 2.35094 8.29926 3.50559 2.82871 1.01568 3.44446 3.53892 3.87767 3.86069 2.82836 7.75479 2.20948 1.31136 3.34634 3.54618 2.5426 2.51364 2.91208 1.79814 3.47024 3.52066 2.25744 2.46934 6.31649 7.92639 2.20363 2.87934 4.66041 2.95429 2.83783 4.74749 1.35559 5.51951 3.38677 5.316 3.74493 2.3486 1.50733 3.05311 3.37766 3.93593 2.38894 1.14848 1.30813 7.96675 2.33136 2.39528 1.78923 2.07684 2.89968 2.33312 4.14114 4.80513 4.04083 2.11738 4.98225 1.28386 1.75995 2.06415 0.872103 0.398115 3.58456 2.56989 6.03929 2.88096 4.23449 3.22487 3.22487 2.75243 2.86525 4.96471 2.91379 3.53892 4.12755 2.74689 3.34517 3.29753 3.14526 1.28386 3.93471 2.77831 3.30701 3.14747 3.2536 1.47204 0.381826 4.95659 3.11433 7.89378 2.94961 2.3424 2.34486 1.36666 1.68073 2.64355 2.64355 3.9338 3.98715 3.55388 3.30701 3.34866 4.37852 3.1473 3.30701 1.18462 3.99177 3.37766 1.90592 2.88175 1.91766 4.03368 1.73037 2.65134 2.23498 4.44145 4.35617 2.8991 2.53811 2.52263 2.88924 4.70659 3.52356 0.382664 3.43643 3.70643 3.67634 2.07684 4.65185 1.91198 2.2796 2.5249 0.974067 0.310678 2.4953 4.46458 1.87994 2.9837 5.58176 4.1556 0.623554 5.60613 0.779947 4.30568 3.20375 1.9714 3.55048 3.52429 3.34634 2.92413 6.79406 1.73328 0.732332 3.11474 3.11433 2.43668 4.16751 3.2307 1.42808 3.09956 2.99027 2.8324 6.32781 1.26122 3.00879 1.16255 2.85009 3.16225 2.64732 2.40706 6.0114 2.2374 4.04083 3.54034 3.9485 3.65805 5.88313 3.16983 9.7325 2.38894 3.58289 3.55388 3.44714 0.381826 2.16207 2.15847 3.93471 4.98225 3.42056 0.711986 2.74117 0.97233 4.34419 4.02371 2.74117 8.07273 1.54019 9.88879 0.923526 4.22204 1.66646 4.4402 3.54004 4.62402 4.99901 3.83286 2.10789 2.64127 3.19412 4.65889 3.44597 3.62919 0.445968 3.1293 2.68953 3.08205 0.344955 3.78722 1.01792 2.66732 2.6321 5.36624 6.24022 3.70643 3.60871 3.7956 3.55218 3.39852 5.28213 6.38965 3.23399 2.88096 3.01587 1.24354 5.49197 0.639538 4.13614 4.43152 4.37852 1.52554 1.69866 5.51147 5.55531 4.22707 2.77831 2.15847 5.49046 3.44778 7.89378 3.11474 3.4117 2.55239 2.51364 1.10814 3.52507 3.16225 4.65848 4.98532 1.9585 1.28643 7.55185 3.11692 6.01584 5.04766 4.10545 1.51023 3.88758 3.39712 6.42374 0.0739553 4.7324 4.26864 2.31315 4.04771 4.02249 3.3731 4.86687 4.56011 3.20375 4.45991 0.97233 3.28085 4.24309 1.78631 3.19838 6.22221 1.95829 2.48546 2.39276 3.82957 1.82778 0.5144 7.47848 0.867021 2.20948 2.05653 1.9714 4.56011 0.974067 7.71347 2.46917 3.22051 1.94188 3.60871 4.30568 3.42358 3.04363 0.337137 2.9842 4.34419 4.45991 4.59755 3.50771 3.31383 3.22165 3.34058 3.39414 1.98175 4.34206 4.99747 1.01792 3.85682 2.82871 9.70714 1.52554 3.34866 2.8607 3.9338 1.31503 3.06182 3.41082 0.469074 2.73065 3.16459 5.1938 0.287388 2.2514 3.48803 0.387456 3.20014 3.26306 1.66646 3.31467 2.22172 3.02593 1.13982 3.91935 0.852466 2.73487 3.01139 2.74604 4.29004 2.5517 1.40787 2.07405 3.04093 0.338511 4.43865 2.71794 2.64544 2.90167 5.48354 0.538415 4.65889 4.26511 5.91451 3.02188 2.52125 1.6592 3.63645 2.4953 2.03498 2.69825 2.7862 2.39975 2.46917 2.37601 3.05089 2.92644 0.420841 4.39047 3.35996 3.73493 1.77434 3.82478 0.420841 1.52314 1.58302 4.99901 0.695948 5.06239 3.78359 1.18623 3.54642 3.53505 2.5716 3.20116 1.41151 4.12043 0.923526 2.87655 2.47754 2.14516 3.65815 0.287388 2.599 2.47754 4.86687 3.30147 5.39886 3.82957 4.70319 3.5544 1.42172 6.85471 2.56914 2.30645 3.00557 1.90131 1.40787 3.45015 2.88271 0.617201 3.50909 0.166428 5.81988 2.23399 2.2374 1.50166 6.87138 0.932231 5.00501 1.99044 2.49413 2.60447 3.13877 2.61707 7.64525 1.55109 3.14711 2.57335 6.26595 5.04766 2.31775 1.16741 4.23449 3.23399 0.483736 8.5346 0.445968 6.29849 2.64437 2.12439 2.06415 4.94304 1.54747 3.44302 2.02478 1.41008 5.05552 3.43745 2.42136 2.42813 3.13564 2.99852 6.87138 0.858519 4.73845 3.36513 3.14711 5.49197 2.7324 5.88313 3.69809 4.57549 1.7411 4.94304 1.75995 2.50817 0.819923 2.90297 4.7755 4.91998 3.55587 4.89743 3.04633 3.53505 6.26405 0.954194 3.31383 2.79275 6.5532 0.898147 2.18215 3.55218 0.597681 3.52796 3.45015 2.5517 1.78161 5.97437 2.10789 4.23067 1.40192 3.86069 3.59972 3.39712 2.52439 5.52489 3.93694 2.86744 2.30024 3.6066 3.4112 3.9741 2.74921 2.74815 2.63015 3.22337 5.65215 3.09345 3.81308 2.78312 3.20116 8.6823 2.95429 1.80062 4.08721 4.85115 3.4117 3.09956 3.45204 3.45204 4.0452 2.98882 3.40377 7.33342 1.24997 3.20251 3.51591 3.88486 4.8985 2.85901 8.48233 2.88175 4.17031 1.78161 2.64544 3.81902 1.10465 2.28066 0.454213 6.96478 2.88924 3.19679 3.57809 3.53115 2.79915 2.85901 2.92233 2.23298 4.91005 0.316923 2.8515 2.99027 4.00264 3.52356 2.19717 3.43867 3.67845 1.52476 5.91451 0.310678 2.16447 2.24375 8.28353 0.872103 5.05552 4.60141 2.93954 2.42033 2.98358 4.59271 4.24309 1.29449 3.28494 4.26864 4.70319 2.39276 0.832466 7.48801 1.33195 8.01615 1.79167 2.25744 1.34811 3.88486 1.88699 2.71257 0.98163 2.5426 3.91574 2.37119 0.929985 2.99331 6.24448 5.54469 4.04771 3.11589 4.11259 4.13614 3.6066 3.7149 4.12755 3.44446 5.38173 0.689655 0.979301 3.7956 1.94188 2.96989 7.53685 3.18058 3.22337 2.80433 3.22487 5.73137 0.15241 0.864177 1.01568 3.85682 3.78722 3.98507 5.38173 4.21836 3.34334 3.02912 3.04276 1.94169 5.17215 0.576289 2.8515 6.12305 3.00557 0.285308 2.56998 2.8324 0.506505 1.94169 4.07287 1.38719 2.9837 1.99277 6.88869 3.55099 2.82373 5.61912 4.19556 3.84896 3.15923 7.52645 2.18631 3.24865 3.55559 3.43778 4.06638 3.56581 3.28566 0.655517 6.81461 2.49413 2.47754 2.94212 3.26306 1.57786 7.01527 7.41075 3.48787 2.66829 3.92893 0.563995 2.65134 1.71137 3.91516 3.14192 2.64689 2.25482 4.18197 5.54469 0.639538 2.17044 2.87063 3.04724 4.02249 2.71332 6.1071 1.46285 1.55109 2.45446 3.06464 2.75518 2.71257 4.56006 0.509719 3.06464 4.67789 2.23178 0.748735 7.12864 2.98733 3.55099 2.23599 3.62919 2.75169 0.748735 2.93861 3.1031 6.29849 8.6823 2.5716 3.04633 4.42221 4.4294 2.54181 2.83783 2.19714 1.90086 5.30489 2.64732 3.52507 4.07895 3.04093 4.53769 3.44925 0.337137 7.54813 1.52314 3.82478 6.52594 0.617201 8.76859 3.58065 3.45033 2.2796 4.91333 1.10465 6.54205 3.61026 3.84173 2.8991 0.491909 5.54035 0.761231 2.04021 9.01741 1.96858 0.454213 3.79686 3.82928 3.50771 3.51437 4.26511 3.19412 2.85811 2.79275 0.576289 10.232 1.58177 4.72985 3.15834 3.8754 2.62294 2.74604 2.77136 3.16655 3.16459 3.30487 1.98011 2.51368 4.29004 2.62294 2.84137 5.99593 4.04696 2.53811 3.90741 0.52993 7.36049 2.20363 6.11421 5.56446 2.56926 3.54034 4.80513 4.80792 2.52263 4.04696 1.26343 3.88976 3.19679 7.33342 3.32453 1.98011 0.679528 2.56989 3.4646 4.54211 4.47735 4.74749 2.54181 3.40801 3.45241 2.37601 7.71347 2.5249 3.45033 3.91574 3.54618 3.52429 3.2648 0.902507 2.71794 1.43219 2.80922 0.687961 6.54205 3.81902 3.90089 1.07928 4.44145 5.35235 4.62157 1.17731 1.6289 2.89968 3.67634 6.24022 0.979301 4.50657 3.61204 5.33993 3.02912 4.24339 4.35098 0.483736 7.97163 2.69825 1.20096 4.65848 2.85009 1.59599 5.36624 1.79056 0.858519 1.24354 4.1895 4.67467 0.139331 2.88046 1.42172 4.39104 2.71804 8.37501 2.92701 3.25761 3.15923 2.71205 5.71184 6.31649 2.4318 3.0208 3.02642 2.73487 0.701833 2.55645 2.74689 4.22707 1.49119 0.166428 4.26416 4.84369 2.4175 1.41885 2.54899 6.99968 7.65596 3.21284 4.01697 3.08834 3.43867 2.03498 6.69233 2.8676 4.98532 1.20096 6.79406 5.04992 0.736071 3.25589 2.4021 3.14128 0.736071 3.1412 4.18197 6.9651 4.0134 4.00925 3.31241 5.46511 3.79258 2.92396 1.45772 7.61462 3.2402 4.67229 2.91802 3.49845 3.2307 2.89696 5.60033 1.34162 4.07758 2.05393 3.51943 3.16159 5.91285 2.42136 3.9058 3.28494 4.16828 4.67651 1.7411 1.15273 4.67789 2.45446 7.64525 2.56133 1.98073 8.18172 0.285308 2.30645 4.90979 2.38215 3.13537 2.78312 2.34476 0.52993 2.85124 2.88789 2.4122 0.491909 4.35617 1.07928 1.65171 3.2536 2.93949 3.76048 1.54747 4.91998 0.60596 1.54266 2.99331 3.49518 4.07895 1.28643 5.27519 3.917 4.67467 1.4571 2.74815 7.06401 1.36666 4.00414 4.00925 1.36306 1.53897 6.90749 2.33312 1.6289 2.34486 5.59071 3.08205 1.59599 3.917 2.9842 3.44925 0.383289 5.49046 2.16207 4.02371 1.21147 1.99277 1.87994 3.96814 1.43478 6.22221 2.599 5.1938 3.16655 2.43118 2.33342 2.2514 2.94212 5.01079 2.57747 6.85471 2.88046 1.54019 2.93655 5.73137 3.22487 1.16741 3.85387 2.08459 3.49897 2.18991 2.47754 7.01527 1.64814 4.91005 3.44597 0.538415 2.88353 2.98633 7.12864 2.75169 2.52125 2.70822 2.71332 0.509719 4.36252 4.79602 3.98715 2.8607 3.30701 4.95659 3.44714 2.22515 2.95311 6.30463 2.23599 3.84896 1.52476 3.76518 2.43327 6.1071 2.70822 3.02188 6.40176 3.45204 1.42808 3.49845 1.96751 2.04021 0.380645 3.47024 7.45964 1.40846 2.22515 4.19556 1.00461 0.898147 6.14986 1.97052 4.24339 3.34334 2.03121 1.58302 8.76859 2.88271 3.52796 3.83286 0.902507 6.88807 4.05535 4.52675 2.37119 4.29558 6.88869 1.21147 3.19838 3.95824 0.455169 4.59428 5.35235 2.23498 0.563995 5.71915 1.58709 6.93133 2.80922 3.74926 4.39113 1.41681 5.06239 4.30215 1.90706 3.0515 3.02593 5.17215 0.506505 4.29558 2.27343 10.232 1.58108 6.24448 1.54266 4.5286 2.91802 2.29009 2.16447 5.58176 1.38719 4.15804 4.5732 1.59142 5.08186 2.19714 3.49518 0.929985 4.52675 0.368088 0.0739553 2.89839 4.96471 1.23706 2.88353 5.48354 1.25505 8.37501 2.25857 3.51943 4.86109 2.07405 5.81988 1.49119 3.44778 0.383289 4.53769 1.30813 10.8081 0.60596 4.7755 5.14752 0.867593 0.349518 6.9651 2.25482 2.5753 2.92701 1.04662 3.48787 0.597681 6.38965 0.58598 2.92658 5.48079 3.22165 0.338511 7.54813 3.04363 6.36709 0.511748 1.63985 0.22147 6.51369 0.623554 4.26191 2.29009 4.67229 7.48801 8.94644 2.02478 2.92754 2.08459 7.77828 2.87655 9.88879 3.91935 8.93226 0.15241 2.93655 4.4402 1.32343 6.99968 0.533306 2.93954 3.55218 1.95829 1.43478 0.511748 3.75139 1.9939 0.22147 3.2402 2.61667 5.91662 4.61253 3.91516 3.22086 7.47848 1.04662 5.71184 1.39043 3.04978 4.52791 2.66829 3.28085 8.07273 0.711986 4.18826 4.16828 1.29449 0.776145 4.16282 2.4175 3.77231 1.6592 4.79602 3.43643 8.37872 1.73462 2.85124 3.90741 1.15671 1.53556 6.32781 2.56998 8.18172 1.44387 5.54035 2.4122 4.93572 1.15671 1.98073 3.78359 1.41681 2.22172 4.38501 1.01489 4.39047 2.92413 1.31136 0.867021 3.22086 1.71137 3.1412 5.04992 1.73328 2.4021 3.48372 3.61026 6.8376 2.50817 6.03929 0.679528 5.99593 2.69971 5.97437 6.96478 1.96858 1.05727 2.64127 0.51539 2.42033 3.9058 4.57549 0.312033 7.22577 1.34811 7.92639 0.701833 0.852466 2.51368 3.32453 3.40377 0.282704 6.69479 3.48803 2.33342 5.11756 1.79056 2.6321 3.82443 3.74493 0.373868 4.73845 4.35098 1.97052 1.14279 3.1293 8.5346 1.67236 8.73336 0.398115 8.28353 0.533306 2.54899 2.92644 0.726261 1.58709 3.96816 1.45772 0.337955 6.69233 2.94527 2.3486 3.82443 2.66732 4.99747 0.316923 1.64814 1.57786 3.20014 2.30756 1.90131 6.12305 1.26343 7.36049 2.34476 3.81308 3.82615 0.995903 2.90297 10.9879 0.469074 3.64181 5.14752 1.96751 1.34162 4.02359 3.54004 1.05727 9.01741 3.51437 4.59755 1.45362 4.7324 0.368088 2.90167 
</DataArray>
<DataArray type="Float64" Name="wall variable 0" format="ascii">
0 0 0 0 0 0 0 0 0 0 0 0 0 0 0 0 0 0 0 0 0 0 0 0 0 0 0 0 0 0 0 0 0 0 0 0 0 0 0 0 0 0 0 0 0 0 0 0 0 0 0 0 0 0 0 0 0 0 0 0 0 0 0 0 0 0 0 0 0 0 0 0 0 0 0 0 0 0 0 0 0 0 0 0 0 0 0 0 0 0 0 0 0 0 0 0 0 0 0 0 0 0 0 0 0 0 0 0 0 0 0 0 0 0 0 0 0 0 0 0 0 0 0 0 0 0 0 0 0 0 0 0 0 0 0 0 0 0 0 0 0 0 0 0 0 0 0 0 0 0 0 0 0 0 0 0 0 0 0 0 0 0 0 0 0 0 0 0 0 0 0 0 0 0 0 0 0 0 0 0 0 0 0 0 0 0 0 0 0 0 0 0 0 0 0 0 0 0 0 0 0 0 0 0 0 0 0 0 0 0 0 0 0 0 0 0 0 0 0 0 0 0 0 0 0 0 0 0 0 0 0 0 0 0 0 0 0 0 0 0 0 0 0 0 0 0 0 0 0 0 0 0 0 0 0 0 0 0 0 0 0 0 0 0 0 0 0 0 0 0 0 0 0 0 0 0 0 0 0 0 0 0 0 0 0 0 0 0 0 0 0 0 0 0 0 0 0 0 0 0 0 0 0 0 0 0 0 0 0 0 0 0 0 0 0 0 0 0 0 0 0 0 0 0 0 0 0 0 0 0 0 0 0 0 0 0 0 0 0 0 0 0 0 0 0 0 0 0 0 0 0 0 0 0 0 0 0 0 0 0 0 0 0 0 0 0 0 0 0 0 0 0 0 0 0 0 0 0 0 0 0 0 0 0 0 0 0 0 0 0 0 0 0 0 0 0 0 0 0 0 0 0 0 0 0 0 0 0 0 0 0 0 0 0 0 0 0 0 0 0 0 0 0 0 0 0 0 0 0 0 0 0 0 0 0 0 0 0 0 0 0 0 0 0 0 0 0 0 0 0 0 0 0 0 0 0 0 0 0 0 0 0 0 0 0 0 0 0 0 0 0 0 0 0 0 0 0 0 0 0 0 0 0 0 0 0 0 0 0 0 0 0 0 0 0 0 0 0 0 0 0 0 0 0 0 0 0 0 0 0 0 0 0 0 0 0 0 0 0 0 0 0 0 0 0 0 0 0 0 0 0 0 0 0 0 0 0 0 0 0 0 0 0 0 0 0 0 0 0 0 0 0 0 0 0 0 0 0 0 0 0 0 0 0 0 0 0 0 0 0 0 0 0 0 0 0 0 0 0 0 0 0 0 0 0 0 0 0 0 0 0 0 0 0 0 0 0 0 0 0 0 0 0 0 0 0 0 0 0 0 0 0 0 0 0 0 0 0 0 0 0 0 0 0 0 0 0 0 0 0 0 0 0 0 0 0 0 0 0 0 0 0 0 0 0 0 0 0 0 0 0 0 0 0 0 0 0 0 0 0 0 0 0 0 0 0 0 0 0 0 0 0 0 0 0 0 0 0 0 0 0 0 0 0 0 0 0 0 0 0 0 0 0 0 0 0 0 0 0 0 0 0 0 0 0 0 0 0 0 0 0 0 0 0 0 0 0 0 0 0 0 0 0 0 0 0 0 0 0 0 0 0 0 0 0 0 0 0 0 0 0 0 0 0 0 0 0 0 0 0 0 0 0 0 0 0 0 0 0 0 0 0 0 0 0 0 0 0 0 0 0 0 0 0 0 0 0 0 0 0 0 0 0 0 0 0 0 0 0 0 0 0 0 0 0 0 0 0 0 0 0 0 0 0 0 0 0 0 0 0 0 0 0 0 0 0 0 0 0 0 0 0 0 0 0 0 0 0 0 0 0 0 0 0 0 0 0 0 0 0 0 0 0 0 0 0 0 0 0 0 0 0 0 0 0 0 0 0 0 0 0 0 0 0 0 0 0 0 0 0 0 0 0 0 0 0 0 0 0 0 0 0 0 0 0 0 0 0 0 0 0 0 0 0 0 0 0 0 0 0 0 0 0 0 0 0 0 0 0 0 0 0 0 0 0 0 0 0 0 0 0 0 0 0 0 0 0 0 0 0 0 0 0 0 0 0 0 0 0 0 0 0 0 0 0 0 0 0 0 0 0 0 0 0 0 0 0 0 0 0 0 0 0 0 0 0 0 0 0 0 0 0 0 0 0 0 0 0 0 0 0 0 0 0 0 0 0 0 0 0 0 0 0 0 0 0 0 0 0 0 0 0 0 0 0 0 0 0 0 0 0 0 0 0 0 0 0 0 0 0 0 0 0 0 0 0 0 0 0 0 0 0 0 0 0 0 0 0 0 0 0 0 0 0 0 0 0 0 0 0 0 0 0 0 0 0 0 0 0 0 0 0 0 0 0 0 0 0 0 0 0 0 0 0 0 0 0 0 0 0 0 0 0 0 0 0 0 0 0 0 0 0 0 0 0 0 0 0 0 0 0 0 0 0 0 0 0 0 0 0 0 0 0 0 0 0 0 0 0 0 0 0 0 0 0 0 0 0 0 0 0 0 0 0 0 0 0 0 0 0 0 0 0 0 0 0 0 0 0 0 0 0 0 0 0 0 0 0 0 0 0 0 0 0 0 0 0 0 0 0 0 0 0 0 0 0 0 0 0 0 0 0 0 0 0 0 0 0 0 0 0 0 0 0 0 0 0 0 0 0 0 0 0 0 0 0 0 0 0 0 0 0 0 0 0 0 0 0 0 0 0 0 0 0 0 0 0 0 0 0 0 0 0 0 0 0 0 0 0 0 0 0 0 0 0 0 0 0 0 0 0 0 0 0 0 0 0 0 0 0 0 0 0 0 0 0 0 0 0 0 0 0 0 0 0 0 0 0 0 0 0 0 0 0 0 0 0 0 0 0 0 0 0 0 0 0 0 0 0 0 0 0 0 0 0 0 0 0 0 0 0 0 0 0 0 0 0 0 0 0 0 0 0 0 0 0 0 0 0 0 0 0 0 0 0 0 0 0 0 0 0 0 0 0 0 0 0 0 0 0 0 0 0 0 0 0 0 0 0 0 0 0 0 0 0 0 0 0 0 0 0 0 0 0 0 0 0 0 0 0 0 0 0 0 0 0 0 0 0 0 0 0 0 0 0 0 0 0 0 0 0 0 0 0 0 0 0 0 0 0 0 0 0 0 0 0 0 0 0 0 0 0 0 0 0 0 0 0 0 0 0 0 0 0 0 0 0 0 0 0 0 0 0 0 0 0 0 0 0 0 0 0 0 0 0 0 0 0 0 0 0 0 0 0 0 0 0 0 0 0 0 0 0 0 0 0 0 0 0 0 0 0 0 0 0 0 0 0 0 0 0 0 0 0 0 0 0 0 0 0 0 0 0 0 0 0 0 0 0 0 0 0 0 0 0 0 0 0 0 0 0 0 0 0 0 0 0 0 0 0 0 0 0 0 0 0 0 0 0 0 0 0 0 0 0 0 0 0 0 0 0 0 0 0 0 0 0 0 0 0 0 0 0 0 0 0 0 0 0 0 0 0 0 0 0 0 0 0 0 0 0 0 0 0 0 0 0 0 0 0 0 0 0 0 0 0 0 0 0 0 0 0 0 0 0 0 0 0 0 0 0 0 0 0 0 0 0 0 0 0 0 0 0 0 0 0 0 0 0 0 0 0 0 0 0 0 0 0 0 0 0 0 0 0 0 0 0 0 0 0 0 0 0 0 0 0 0 0 0 0 0 0 0 0 0 0 0 0 0 0 0 0 0 0 0 0 0 0 0 0 0 0 0 0 0 0 0 0 0 0 0 0 0 0 0 0 0 0 0 0 0 0 0 0 0 0 0 0 0 0 0 0 0 0 0 0 0 0 0 0 0 0 0 0 0 0 0 0 0 0 0 0 0 0 0 0 0 0 0 0 0 0 0 0 0 0 0 0 0 0 0 0 0 0 0 0 0 0 0 0 0 0 0 0 0 0 0 0 0 0 0 0 0 0 0 0 0 0 0 0 0 0 0 0 0 0 0 0 0 0 0 0 0 0 0 0 0 0 0 0 0 0 0 0 0 0 0 0 0 0 0 0 0 0 0 0 0 0 0 0 0 0 0 0 0 0 0 0 0 0 0 0 0 0 0 0 0 0 0 0 0 0 0 0 0 0 0 0 0 0 0 0 0 0 0 0 0 0 0 0 0 0 0 0 0 0 0 0 0 0 0 0 0 0 0 0 0 0 0 0 0 0 0 0 0 0 0 0 0 0 0 0 0 0 
</DataArray>
<DataArray type="Float64" Name="wall variable 1" format="ascii">