<VTKFile type="UnstructuredGrid" version="0.1">
<UnstructuredGrid>
<Piece  NumberOfPoints="    2445" NumberOfCells="     408">
<Points>
<DataArray type="Float64" NumberOfComponents="3" format="ascii">
44.7476 -39.718 0.0
44.7895 -39.0986 0.0
39.6362 -35.2034 0.0
38.2242 -35.6665 0.0
37.4994 -36.8016 0.0
42.6534 -41.2737 0.0
26.8533 41.3576 0.0
25.573 41.3768 0.0
24.7651 38.8487 0.0
24.9109 35.3763 0.0
25.5578 34.8473 0.0
29.8959 34.85 0.0
30.211 36.1248 0.0
32.8182 -24.3903 0.0
32.2574 -20.2838 0.0
25.6566 -23.0636 0.0
24.6971 -24.8705 0.0
25.6648 -25.9996 0.0
-2.27182 20.8779 0.0
-6.63058 17.4653 0.0
-6.02304 14.4283 0.0
-1.25782 17.3723 0.0
-0.0600796 18.5496 0.0
-34.9349 -44.2193 0.0
-32.6756 -47.3882 0.0
-30.1165 -45.8797 0.0
-30.1528 -42.9055 0.0
-30.8329 -41.0704 0.0
14.9042 -23.3319 0.0
12.7571 -21.9535 0.0
8.92137 -22.6368 0.0
5.49124 -23.7955 0.0
5.05777 -24.6593 0.0
7.64503 -26.7289 0.0
-42.2949 -9.65473 0.0
-39.5445 -12.7135 0.0
-38.877 -13.0383 0.0
-37.5939 -12.6709 0.0
-38.2827 -8.70565 0.0
-39.0786 -5.44294 0.0
15.7265 -22.8823 0.0
17.5508 -19.9604 0.0
15.1946 -15.1337 0.0
11.1988 -15.8039 0.0
13.2447 -21.416 0.0
15.3917 -22.7944 0.0
-38.763 35.3841 0.0
-36.1915 41.8083 0.0
-36.0875 43.0832 0.0
-36.4536 44.6612 0.0
-38.1428 44.6531 0.0
-39.6347 43.4926 0.0
-40.5581 40.9629 0.0
20.0634 -44.6105 0.0
15.9084 -43.9492 0.0
15.1398 -44.4142 0.0
14.403 -47.8529 0.0
16.2351 -49.5022 0.0
16.6215 -49.5149 0.0
19.8826 -49.0087 0.0
3.03858 17.9359 0.0
2.8801 17.2711 0.0
7.20296 12.8151 0.0
8.42079 12.7447 0.0
9.30905 12.7822 0.0
9.25104 17.0811 0.0
8.45769 17.5212 0.0
-47.7706 -18.8137 0.0
-52.6294 -16.0655 0.0
-54.199 -17.8049 0.0
-54.2093 -21.2488 0.0
-52.9272 -24.5402 0.0
-52.7829 -24.6811 0.0
-50.9385 -22.4964 0.0
23.1871 26.6135 0.0
23.4184 27.2296 0.0
19.9568 34.9674 0.0
17.7406 35.2986 0.0
17.0233 33.6547 0.0
16.9572 32.6795 0.0
-13.0476 -11.4189 0.0
-13.9326 -14.3759 0.0
-12.7157 -15.1345 0.0
-8.3758 -16.6959 0.0
-7.28599 -15.767 0.0
-6.88363 -15.0854 0.0
-7.84301 -12.65 0.0
42.578 -3.52104 0.0
38.7956 -2.99446 0.0
37.4124 -9.01538 0.0
39.8923 -8.59048 0.0
43.056 -4.03763 0.0
-17.1142 -38.7593 0.0
-18.4916 -38.4473 0.0
-22.7198 -39.8827 0.0
-22.2644 -43.4768 0.0
-19.0283 -45.8894 0.0
-18.7271 -45.8781 0.0
-23.3538 58.9609 0.0
-24.3579 58.7245 0.0
-25.8774 52.6509 0.0
-24.199 51.9029 0.0
-23.6512 51.9172 0.0
-20.504 52.3177 0.0
-19.6533 56.3691 0.0
-21.8725 58.5701 0.0
-47.1422 21.2381 0.0
-49.898 20.9443 0.0
-50.1782 20.4766 0.0
-51.3207 16.0142 0.0
-48.2234 13.6782 0.0
-46.315 14.5674 0.0
46.431 -7.46078 0.0
45.7171 -5.48544 0.0
44.3208 -4.28372 0.0
43.3574 -4.26793 0.0
40.1937 -8.82078 0.0
39.9148 -11.1654 0.0
40.0226 -12.7529 0.0
39.1879 -11.5114 0.0
39.4668 -9.16676 0.0
36.9869 -9.59167 0.0
32.702 -10.7328 0.0
32.3869 -11.936 0.0
32.6344 -14.4032 0.0
-39.1004 -3.14028 0.0
-36.8995 -3.0177 0.0
-37.0666 3.11811 0.0
-39.0847 4.75524 0.0
-39.6619 4.12271 0.0
-39.8055 1.57805 0.0
-39.9813 -2.41741 0.0
-22.097 25.004 0.0
-24.3258 22.2801 0.0
-25.0629 20.927 0.0
-24.4482 17.9937 0.0
-22.2335 17.7231 0.0
-20.8355 20.457 0.0
32.5167 32.6717 0.0
35.4264 35.3845 0.0
33.6684 41.0408 0.0
30.8076 36.0012 0.0
30.4925 34.7264 0.0
45.2896 22.8814 0.0
47.177 23.5171 0.0
47.8589 28.4249 0.0
47.7224 29.2441 0.0
46.9879 30.4534 0.0
43.9774 31.3251 0.0
43.0441 30.5807 0.0
42.551 28.4797 0.0
-51.3978 8.29062 0.0
-51.5299 9.03701 0.0
-53.1419 13.2584 0.0
-54.9858 11.7574 0.0
-55.9192 10.3431 0.0
-54.0337 6.0299 0.0
-45.7679 21.5331 0.0
-46.7221 21.2107 0.0
-45.8949 14.54 0.0
-43.0932 14.409 0.0
-40.8195 14.8089 0.0
-52.0305 30.4159 0.0
-52.1107 30.3161 0.0
-47.2052 29.0392 0.0
-44.0209 32.4924 0.0
-44.4166 33.6328 0.0
-47.584 32.8892 0.0
-58.303 17.1785 0.0
-60.2189 15.1268 0.0
-55.2598 12.2791 0.0
-53.4158 13.7801 0.0
-52.7779 15.303 0.0
-43.1489 13.867 0.0
-45.9506 13.998 0.0
-47.859 13.1089 0.0
-46.8829 10.2123 0.0
-42.5281 9.18315 0.0
-27.6039 -40.891 0.0
-29.7249 -42.8716 0.0
-29.6885 -45.8458 0.0
-28.2103 -46.5633 0.0
-28.026 -46.5879 0.0
-25.0962 -44.888 0.0
-51.9378 0.853093 0.0
-53.2097 2.48369 0.0
-59.2868 4.82306 0.0
-59.9934 1.11651 0.0
-56.6428 -2.19055 0.0
6.77429 44.3169 0.0
3.83519 46.132 0.0
1.93065 45.1138 0.0
-3.29571 38.7311 0.0
-2.047 38.1773 0.0
9.41059 26.4119 0.0
9.30567 24.5644 0.0
12.8876 21.2753 0.0
13.1804 21.603 0.0
13.4948 21.982 0.0
13.7774 25.3094 0.0
12.414 27.2741 0.0
9.97007 27.4351 0.0
9.68626 43.2058 0.0
7.00007 44.0978 0.0
-1.82122 37.9581 0.0
-0.0376568 36.469 0.0
1.77894 37.0328 0.0
8.67897 41.6173 0.0
-39.907 -39.4652 0.0
-40.0294 -39.9948 0.0
-38.2088 -42.0111 0.0
-35.7066 -43.3836 0.0
-34.1402 -37.8369 0.0
-40.0685 7.8324 0.0
-42.485 8.7805 0.0
-46.8398 9.80967 0.0
-47.0483 8.42938 0.0
-46.7601 5.45522 0.0
-5.06475 38.7254 0.0
-3.75987 38.7356 0.0
1.46649 45.1182 0.0
-5.24195 44.7441 0.0
-29.3149 -16.794 0.0
-31.9859 -14.2649 0.0
-34.8069 -13.1394 0.0
-35.7996 -13.4882 0.0
-35.0948 -15.1284 0.0
-32.9902 -19.1023 0.0
-25.554 30.0977 0.0
-26.2967 30.407 0.0
-29.0386 29.9236 0.0
-28.875 25.2854 0.0
-25.9565 21.7177 0.0
-25.4541 21.485 0.0
-24.7169 22.8381 0.0
55.2952 -28.0459 0.0
56.4953 -26.6314 0.0
56.6774 -26.2093 0.0
56.9426 -22.1126 0.0
51.1272 -23.5528 0.0
47.7653 -25.7881 0.0
-24.0189 -52.1985 0.0
-23.0229 -52.0923 0.0
-19.2439 -46.5041 0.0
-22.4799 -44.0916 0.0
-22.9648 -44.4098 0.0
44.9956 -38.8436 0.0
45.0774 -33.2473 0.0
42.5296 -33.7818 0.0
39.8423 -34.9483 0.0
26.8216 -50.8015 0.0
22.7364 -53.1273 0.0
20.2698 -57.4708 0.0
27.2124 -54.594 0.0
27.064 -50.9443 0.0
-19.8006 -15.5279 0.0
-24.4935 -12.7924 0.0
-25.2416 -18.0016 0.0
-23.9121 -18.6407 0.0
8.99622 41.4034 0.0
2.0962 36.8189 0.0
9.3042 36.1767 0.0
10.4821 37.1185 0.0
25.324 2.47234 0.0
24.7215 2.84745 0.0
19.0652 -1.57993 0.0
18.979 -4.3336 0.0
20.268 -5.14167 0.0
23.4447 -3.22676 0.0
11.1937 -13.4188 0.0
15.3235 -10.2931 0.0
12.3767 -9.04679 0.0
9.84904 -10.9508 0.0
9.06137 -11.5785 0.0
8.85213 -14.2413 0.0
9.8412 -14.4487 0.0
25.2351 48.6665 0.0
25.2443 47.8089 0.0
30.5838 42.9327 0.0
32.9675 43.2872 0.0
32.7567 45.4593 0.0
28.7094 47.3757 0.0
-7.28515 -40.4294 0.0
-8.00102 -40.872 0.0
-6.28494 -47.5252 0.0
-4.36771 -46.2518 0.0
-1.69129 -43.3019 0.0
24.6371 -17.7601 0.0
22.2303 -16.0655 0.0
18.138 -20.0882 0.0
16.3136 -23.01 0.0
16.679 -23.5612 0.0
18.7205 -23.6231 0.0
33.4803 15.5633 0.0
35.2604 10.994 0.0
40.2685 16.8674 0.0
-32.9408 5.99767 0.0
-32.8105 6.46076 0.0
-32.8609 8.67559 0.0
-35.5257 9.73459 0.0
-37.7641 10.3993 0.0
-38.8335 7.72517 0.0
-38.7856 6.76543 0.0
9.83393 -59.0195 0.0
7.50888 -55.5049 0.0
1.71128 -57.3967 0.0
4.32558 -59.4263 0.0
8.48288 -59.8639 0.0
8.92883 -59.7196 0.0
-18.6325 50.7947 0.0
-12.9087 55.0409 0.0
-14.9223 58.2046 0.0
-15.3584 58.0961 0.0
-19.0538 56.3232 0.0
-19.9045 52.2719 0.0
-32.6834 31.6512 0.0
-35.0606 29.8344 0.0
-31.9071 24.4849 0.0
-29.3656 25.4833 0.0
-29.5293 30.1215 0.0
-30.8129 31.6147 0.0
-51.875 16.0938 0.0
-50.7325 20.5563 0.0
-57.5572 19.6458 0.0
-58.0838 17.5222 0.0
-52.5587 15.6466 0.0
22.8362 23.7945 0.0
20.8106 20.2563 0.0
27.5858 18.6196 0.0
25.0841 23.3985 0.0
23.7931 24.1822 0.0
37.4583 1.64338 0.0
38.1134 0.517166 0.0
45.574 5.81276 0.0
46.6283 7.61633 0.0
44.3086 9.67297 0.0
39.6711 5.05965 0.0
12.7847 -3.60188 0.0
10.3676 -2.4837 0.0
7.55462 -7.74657 0.0
8.66825 -10.5861 0.0
8.90716 -11.0687 0.0
9.69483 -10.441 0.0
23.921 -3.08006 0.0
26.1206 -3.97845 0.0
30.0093 2.51801 0.0
29.1705 3.08358 0.0
27.2676 3.14741 0.0
25.8003 2.61903 0.0
39.3529 -13.4239 0.0
39.2451 -11.8363 0.0
32.6915 -14.7281 0.0
32.5977 -15.9739 0.0
33.569 -16.919 0.0
38.0107 -16.3091 0.0
38.852 -15.2656 0.0
-35.6131 -44.0118 0.0
-38.1153 -42.6392 0.0
-38.4083 -47.1326 0.0
-33.9406 -50.7944 0.0
-33.0588 -47.618 0.0
-35.3181 -44.4491 0.0
-6.66703 -16.403 0.0
-7.75684 -17.3319 0.0
-7.6441 -18.2634 0.0
-2.74586 -24.2299 0.0
-1.8491 -24.7399 0.0
-1.0981 -20.903 0.0
-5.68058 23.9319 0.0
-8.62866 23.7565 0.0
-13.2622 15.5921 0.0
-12.3636 14.1834 0.0
-10.3387 15.8754 0.0
42.8327 13.6769 0.0
38.8072 10.5329 0.0
39.588 5.51748 0.0
44.2255 10.1308 0.0
43.4597 12.5581 0.0
-36.5467 -3.13938 0.0
-33.0163 -3.37924 0.0
-32.4725 -2.04815 0.0
-33.7367 0.917226 0.0
-36.7138 2.99643 0.0
-1.17447 -3.68685 0.0
-1.05221 -3.61821 0.0
-5.00349 4.60987 0.0
-6.0621 4.4285 0.0
-6.68101 0.493509 0.0
28.3313 17.0415 0.0
25.8341 14.7886 0.0
26.0801 13.2121 0.0
27.3802 4.21916 0.0
29.2831 4.15533 0.0
29.0218 15.4721 0.0
28.8132 16.9195 0.0
48.4415 16.495 0.0
49.5511 16.598 0.0
49.4362 21.5681 0.0
47.384 22.7639 0.0
45.4966 22.1283 0.0
44.1675 20.9649 0.0
-24.4968 -52.2206 0.0
-24.3272 -52.2022 0.0
-23.2731 -44.4135 0.0
-24.8301 -45.2767 0.0
-27.7598 -46.9766 0.0
-21.897 -27.1981 0.0
-21.0938 -29.0861 0.0
-19.9167 -29.1328 0.0
-17.907 -26.3597 0.0
-18.1177 -22.5531 0.0
-18.133 -22.0409 0.0
-18.5148 -21.495 0.0
-21.0896 -20.8176 0.0
-24.9818 41.3824 0.0
-25.1211 38.9734 0.0
-23.9217 38.1365 0.0
-20.64 37.5073 0.0
-19.1199 38.9066 0.0
-19.6139 42.2753 0.0
46.2361 -4.93472 0.0
47.3705 -4.48931 0.0
51.0826 -3.03397 0.0
49.2504 0.582825 0.0
44.8397 -3.73301 0.0
-45.5263 -14.1805 0.0
-52.0584 -13.9551 0.0
-52.2981 -15.6613 0.0
-47.4394 -18.4095 0.0
-45.7273 -18.4696 0.0
-52.0555 30.8683 0.0
-47.6089 33.3415 0.0
-44.2496 41.2128 0.0
-46.0366 40.2036 0.0
-35.707 41.6702 0.0
-34.4232 37.6336 0.0
-33.9397 36.254 0.0
-30.5874 39.0529 0.0
-31.4883 40.282 0.0
-35.603 42.9451 0.0
0.510168 60.3562 0.0
-0.276364 60.2678 0.0
0.817027 55.3241 0.0
4.81498 54.069 0.0
5.29394 58.1859 0.0
44.1156 12.6211 0.0
44.8814 10.1938 0.0
47.2011 8.13718 0.0
48.6082 8.33169 0.0
51.8313 10.0886 0.0
51.4416 11.5834 0.0
54.335 8.82404 0.0
52.1625 9.73127 0.0
48.9394 7.97434 0.0
49.401 5.55964 0.0
49.996 2.69708 0.0
20.8516 -11.0188 0.0
20.6797 -10.6091 0.0
11.6237 -13.5769 0.0
10.2712 -14.6068 0.0
11.3321 -15.2474 0.0
15.328 -14.5771 0.0
20.4219 -12.4357 0.0
10.1874 -48.3878 0.0
13.7937 -47.6817 0.0
14.5305 -44.2429 0.0
10.0815 -41.9377 0.0
8.91364 -41.5573 0.0
7.91109 -41.9451 0.0
17.9672 -37.0042 0.0
20.4461 -34.6748 0.0
[...]
<CellData Scalars="cell variable 4" Vectors="cell vector">
<DataArray type="Float64" NumberOfComponents="3" Name="cell vector" format="ascii">
0 0 0
0 0 0
0 0 0
0 0 0
0 0 0
0 0 0
0 0 0
0 0 0
0 0 0
0 0 0
0 0 0
0 0 0
0 0 0
0 0 0
0 0 0
0 0 0
0 0 0
0 0 0
0 0 0
0 0 0
0 0 0
0 0 0
0 0 0
0 0 0
0 0 0
0 0 0
0 0 0
0 0 0
0 0 0
0 0 0
0 0 0
0 0 0
0 0 0
0 0 0
0 0 0
0 0 0
0 0 0
0 0 0
0 0 0
0 0 0
0 0 0
0 0 0
0 0 0
0 0 0
0 0 0
0 0 0
0 0 0
0 0 0
0 0 0
0 0 0
0 0 0
0 0 0
0 0 0
0 0 0
0 0 0
0 0 0
0 0 0
0 0 0
0 0 0
0 0 0
0 0 0
0 0 0
0 0 0
0 0 0
0 0 0
0 0 0
0 0 0
0 0 0
0 0 0
0 0 0
0 0 0
0 0 0
0 0 0
0 0 0
0 0 0
0 0 0
0 0 0
0 0 0
0 0 0
0 0 0
0 0 0
0 0 0
0 0 0
0 0 0
0 0 0
0 0 0
0 0 0
0 0 0
0 0 0
0 0 0
0 0 0
0 0 0
0 0 0
0 0 0
0 0 0
0 0 0
0 0 0
0 0 0
0 0 0
0 0 0
0 0 0
0 0 0
0 0 0
0 0 0
0 0 0
0 0 0
0 0 0
0 0 0
0 0 0
0 0 0
0 0 0
0 0 0
0 0 0
0 0 0
0 0 0
0 0 0
0 0 0
0 0 0
0 0 0
0 0 0
0 0 0
0 0 0
0 0 0
0 0 0
0 0 0
0 0 0
0 0 0
0 0 0
0 0 0
0 0 0
0 0 0
0 0 0
0 0 0
0 0 0
0 0 0
0 0 0
0 0 0
0 0 0
0 0 0
0 0 0
0 0 0
0 0 0
0 0 0
0 0 0
0 0 0
0 0 0
0 0 0
0 0 0
0 0 0
0 0 0
0 0 0
0 0 0
0 0 0
0 0 0
0 0 0
0 0 0
0 0 0
0 0 0
0 0 0
0 0 0
0 0 0
0 0 0
0 0 0
0 0 0
0 0 0
0 0 0
0 0 0
0 0 0
0 0 0
0 0 0
0 0 0
0 0 0
0 0 0
0 0 0
0 0 0
0 0 0
0 0 0
0 0 0
0 0 0
0 0 0
0 0 0
0 0 0
0 0 0
0 0 0
0 0 0
0 0 0
0 0 0
0 0 0
0 0 0
0 0 0
0 0 0
0 0 0
0 0 0
0 0 0
0 0 0
0 0 0
0 0 0
0 0 0
0 0 0
0 0 0
0 0 0
0 0 0
0 0 0
0 0 0
0 0 0
0 0 0
0 0 0
0 0 0
0 0 0
0 0 0
0 0 0
0 0 0
0 0 0
0 0 0
0 0 0
0 0 0
0 0 0
0 0 0
0 0 0
0 0 0
0 0 0
0 0 0
0 0 0
0 0 0
0 0 0
0 0 0
0 0 0
0 0 0
0 0 0
0 0 0
0 0 0
0 0 0
0 0 0
0 0 0
0 0 0
0 0 0
0 0 0
0 0 0
0 0 0
0 0 0
0 0 0
0 0 0
0 0 0
0 0 0
0 0 0
0 0 0
0 0 0
0 0 0
0 0 0
0 0 0
0 0 0
0 0 0
0 0 0
0 0 0
0 0 0
0 0 0
0 0 0
0 0 0
0 0 0
0 0 0
0 0 0
0 0 0
0 0 0
0 0 0
0 0 0
0 0 0
0 0 0
0 0 0
0 0 0
0 0 0
0 0 0
0 0 0
0 0 0
0 0 0
0 0 0
0 0 0
0 0 0
0 0 0
0 0 0
0 0 0
0 0 0
0 0 0
0 0 0
0 0 0
0 0 0
0 0 0
0 0 0
0 0 0
0 0 0
0 0 0
0 0 0
0 0 0
0 0 0
0 0 0
0 0 0
0 0 0
0 0 0
0 0 0
0 0 0
0 0 0
0 0 0
0 0 0
0 0 0
0 0 0
0 0 0
0 0 0
0 0 0
0 0 0
0 0 0
0 0 0
0 0 0
0 0 0
0 0 0
0 0 0
0 0 0
0 0 0
0 0 0
0 0 0
0 0 0
0 0 0
0 0 0
0 0 0
0 0 0
0 0 0
0 0 0
0 0 0
0 0 0
0 0 0
0 0 0
0 0 0
0 0 0
0 0 0
0 0 0
0 0 0
0 0 0
0 0 0
0 0 0
0 0 0
0 0 0
0 0 0
0 0 0
0 0 0
0 0 0
0 0 0
0 0 0
0 0 0
0 0 0
0 0 0
0 0 0
0 0 0
0 0 0
0 0 0
0 0 0
0 0 0
0 0 0
0 0 0
0 0 0
0 0 0
0 0 0
0 0 0
0 0 0
0 0 0
0 0 0
0 0 0
0 0 0
0 0 0
0 0 0
0 0 0
0 0 0
0 0 0
0 0 0
0 0 0
0 0 0
0 0 0
0 0 0
0 0 0
0 0 0
0 0 0
0 0 0
0 0 0
0 0 0
0 0 0
0 0 0
0 0 0
0 0 0
0 0 0
0 0 0
0 0 0
0 0 0
0 0 0
0 0 0
0 0 0
0 0 0
0 0 0
0 0 0
0 0 0
0 0 0
0 0 0
0 0 0
0 0 0
0 0 0
0 0 0
0 0 0
0 0 0
0 0 0
0 0 0
0 0 0
0 0 0
</DataArray>
<DataArray type="Float64" Name="cell vector length" format="ascii">
0 0 0 0 0 0 0 0 0 0 0 0 0 0 0 0 0 0 0 0 0 0 0 0 0 0 0 0 0 0 0 0 0 0 0 0 0 0 0 0 0 0 0 0 0 0 0 0 0 0 0 0 0 0 0 0 0 0 0 0 0 0 0 0 0 0 0 0 0 0 0 0 0 0 0 0 0 0 0 0 0 0 0 0 0 0 0 0 0 0 0 0 0 0 0 0 0 0 0 0 0 0 0 0 0 0 0 0 0 0 0 0 0 0 0 0 0 0 0 0 0 0 0 0 0 0 0 0 0 0 0 0 0 0 0 0 0 0 0 0 0 0 0 0 0 0 0 0 0 0 0 0 0 0 0 0 0 0 0 0 0 0 0 0 0 0 0 0 0 0 0 0 0 0 0 0 0 0 0 0 0 0 0 0 0 0 0 0 0 0 0 0 0 0 0 0 0 0 0 0 0 0 0 0 0 0 0 0 0 0 0 0 0 0 0 0 0 0 0 0 0 0 0 0 0 0 0 0 0 0 0 0 0 0 0 0 0 0 0 0 0 0 0 0 0 0 0 0 0 0 0 0 0 0 0 0 0 0 0 0 0 0 0 0 0 0 0 0 0 0 0 0 0 0 0 0 0 0 0 0 0 0 0 0 0 0 0 0 0 0 0 0 0 0 0 0 0 0 0 0 0 0 0 0 0 0 0 0 0 0 0 0 0 0 0 0 0 0 0 0 0 0 0 0 0 0 0 0 0 0 0 0 0 0 0 0 0 0 0 0 0 0 0 0 0 0 0 0 0 0 0 0 0 0 0 0 0 0 0 0 0 0 0 0 0 0 0 0 0 0 0 0 0 0 0 0 0 0 0 0 0 0 0 0 0 0 0 0 0 0 0 0 0 0 0 0 0 0 0 0 0 0 0 0 0 0 0 0 
</DataArray>
<DataArray type="Float64" Name="cell variable 4" format="ascii">
0.316217 0.434405 0.657465 1.07467 0.437452 0.94865 0.542818 0.94865 0.371127 0.399988 1.14226 0.479217 0.790107 1.04461 0.573608 0.66381 0.334198 0.495708 0.573608 0.573608 0.542818 0.99432 0.511974 0.511974 0.332003 0.495708 0.393381 0.179448 0.495708 0.437452 0.332003 0.626025 0.980966 0.626025 0.437452 0.495708 0.36504 0.631062 0.673042 0.313432 0.393247 0.316217 0.187543 0.919422 0.626025 1.10185 1.11547 0.434405 0.514292 0.657465 0.848855 0.8063 0.442722 0.33356 0.673042 0.179448 1.06245 0.736473 1.11547 0.912892 0.573608 0.136507 1.04461 1.07467 0.736473 0.542818 1.12037 0.848855 0.50937 0.393247 0.631062 0.503886 0.45141 0.542818 0.153908 0.371127 0.36504 0.50937 0.45141 1.11547 0.442722 0.708918 0.495708 0.790107 0.45141 0.399988 1.04461 1.10185 1.14226 0.371127 0.393381 0.708918 0.36504 0.313432 0.980966 0.980966 0.118662 0.919422 0.503886 0.542818 0.503886 1.04461 0.919422 0.313432 0.631062 0.919422 0.479217 0.542818 0.434405 0.912892 0.542818 0.790107 0.763876 0.673042 0.161465 0.334198 0.542818 0.657465 1.11547 0.789941 0.393247 0.511974 0.399988 0.343308 0.393381 0.673042 0.32239 0.573608 0.99432 0.514292 0.514292 0.763876 0.789941 0.393381 0.66381 1.06245 0.50937 0.789941 1.04461 0.789941 0.790107 1.00681 1.12037 0.33356 0.542818 0.980966 0.66381 0.99432 0.32239 0.848855 0.511974 0.980966 0.313432 0.919422 1.00681 0.332003 0.912892 0.790107 0.542818 1.06245 1.07467 0.94865 0.848855 1.06245 0.511974 0.763876 0.657465 0.434405 1.11547 0.36504 0.27464 0.184973 0.573608 0.371127 0.313432 0.313432 1.00681 1.00681 0.343308 0.187543 1.12037 1.00681 1.00681 0.657465 0.442722 0.437452 0.657465 1.11547 0.313432 0.848855 0.542818 0.912892 1.07467 0.399988 0.50937 0.789941 0.94865 0.763876 0.8063 0.50937 0.790107 0.393247 0.161465 0.657465 0.631062 0.50937 0.45141 0.708918 0.763876 0.442722 0.514292 0.673042 0.631062 0.495708 0.316217 0.153908 0.316217 0.673042 0.573608 1.07467 0.252014 0.316217 0.434405 0.45141 0.343308 0.8063 0.511974 0.332003 0.437452 0.763876 0.316217 0.90618 0.848855 1.10185 1.04461 0.919422 1.10185 0.479217 0.45141 0.631062 0.99432 0.23011 0.343308 1.11547 0.32239 0.399988 0.90618 0.736473 0.36504 1.07467 1.10185 0.393247 0.626025 0.36504 0.316217 0.763876 1.10185 0.45141 0.442722 0.437452 1.11547 0.514292 0.479217 0.45141 0.36504 0.631062 1.14226 0.912892 0.437452 0.919422 1.11547 0.789941 0.136507 0.542818 0.503886 0.631062 0.36504 0.631062 0.94865 0.371127 0.187543 0.736473 0.8063 0.912892 0.249242 0.631062 0.573608 0.343308 0.50937 1.00681 0.343308 1.14226 0.94865 0.32239 0.332003 0.8063 0.66381 1.12037 0.66381 0.673042 0.912892 0.790107 1.12037 0.334198 0.187543 0.848855 0.33356 0.313432 0.434405 0.90618 0.631062 0.542818 1.12037 1.07467 0.912892 0.399988 1.10185 1.11547 0.980966 0.8063 0.631062 0.32239 0.393381 0.399988 0.332003 0.316217 0.542818 1.14226 0.573608 0.33356 1.04461 0.66381 0.708918 0.27464 0.626025 0.479217 0.90618 0.495708 0.36504 0.514292 0.542818 0.249242 1.00681 0.393381 0.99432 1.06245 0.8063 0.848855 0.33356 0.434405 0.657465 0.573608 0.919422 0.442722 0.399988 0.252014 0.514292 0.8063 0.495708 1.14226 1.12037 0.343308 0.313432 0.919422 0.919422 0.763876 0.848855 0.313432 0.789941 1.11547 0.980966 0.442722 0.434405 1.10185 0.90618 0.790107 1.12037 0.393247 0.673042 0.626025 0.66381 0.511974 1.06245 0.514292 0.542818 0.343308 0.626025 0.90618 1.14226 0.631062 0.626025 1.04461 0.179448 0.371127 0.334198 0.919422 0.66381 0.511974 1.06245 0.252014 1.07467 0.252014 0.789941 0.442722 0.673042 0.371127 0.371127 0.573608 
</DataArray>
<DataArray type="Float64" Name="cell variable 5" format="ascii">
0.0909148 0.0503251 0.0226112 0.00858434 0.0496613 0.0109898 0.0328244 0.0109898 0.0676886 0.0588268 0.00760594 0.0417277 0.0157662 0.00908091 0.0294962 0.0221905 0.082177 0.0391044 0.0294962 0.0294962 0.0328244 0.0100133 0.0367488 0.0367488 0.0831765 0.0391044 0.0606986 0.236958 0.0391044 0.0496613 0.0831765 0.0248813 0.0102849 0.0248813 0.0496613 0.0391044 0.0698059 0.0244954 0.021599 0.0923878 0.0607373 0.0909148 0.221374 0.0116913 0.0248813 0.00816951 0.00797274 0.0503251 0.0364304 0.0226112 0.0136882 0.0151488 0.0485429 0.0824658 0.021599 0.236958 0.00878122 0.0181031 0.00797274 0.0118572 0.0294962 0.349234 0.00908091 0.00858434 0.0181031 0.0328244 0.00790366 0.0136882 0.0371116 0.0607373 0.0244954 0.037893 0.0467791 0.0328244 0.296844 0.0676886 0.0698059 0.0371116 0.0467791 0.00797274 0.0485429 0.0195097 0.0391044 0.0157662 0.0467791 0.0588268 0.00908091 0.00816951 0.00760594 0.0676886 0.0606986 0.0195097 0.0698059 0.0923878 0.0102849 0.0102849 0.415271 0.0116913 0.037893 0.0328244 0.037893 0.00908091 0.0116913 0.0923878 0.0244954 0.0116913 0.0417277 0.0328244 0.0503251 0.0118572 0.0328244 0.0157662 0.016849 0.021599 0.277231 0.082177 0.0328244 0.0226112 0.00797274 0.0157727 0.0607373 0.0367488 0.0588268 0.0782104 0.0606986 0.021599 0.0877689 0.0294962 0.0100133 0.0364304 0.0364304 0.016849 0.0157727 0.0606986 0.0221905 0.00878122 0.0371116 0.0157727 0.00908091 0.0157727 0.0157662 0.00976872 0.00790366 0.0824658 0.0328244 0.0102849 0.0221905 0.0100133 0.0877689 0.0136882 0.0367488 0.0102849 0.0923878 0.0116913 0.00976872 0.0831765 0.0118572 0.0157662 0.0328244 0.00878122 0.00858434 0.0109898 0.0136882 0.00878122 0.0367488 0.016849 0.0226112 0.0503251 0.00797274 0.0698059 0.117059 0.226167 0.0294962 0.0676886 0.0923878 0.0923878 0.00976872 0.00976872 0.0782104 0.221374 0.00790366 0.00976872 0.00976872 0.0226112 0.0485429 0.0496613 0.0226112 0.00797274 0.0923878 0.0136882 0.0328244 0.0118572 0.00858434 0.0588268 0.0371116 0.0157727 0.0109898 0.016849 0.0151488 0.0371116 0.0157662 0.0607373 0.277231 0.0226112 0.0244954 0.0371116 0.0467791 0.0195097 0.016849 0.0485429 0.0364304 0.021599 0.0244954 0.0391044 0.0909148 0.296844 0.0909148 0.021599 0.0294962 0.00858434 0.136034 0.0909148 0.0503251 0.0467791 0.0782104 0.0151488 0.0367488 0.0831765 0.0496613 0.016849 0.0909148 0.0120314 0.0136882 0.00816951 0.00908091 0.0116913 0.00816951 0.0417277 0.0467791 0.0244954 0.0100133 0.158855 0.0782104 0.00797274 0.0877689 0.0588268 0.0120314 0.0181031 0.0698059 0.00858434 0.00816951 0.0607373 0.0248813 0.0698059 0.0909148 0.016849 0.00816951 0.0467791 0.0485429 0.0496613 0.00797274 0.0364304 0.0417277 0.0467791 0.0698059 0.0244954 0.00760594 0.0118572 0.0496613 0.0116913 0.00797274 0.0157727 0.349234 0.0328244 0.037893 0.0244954 0.0698059 0.0244954 0.0109898 0.0676886 0.221374 0.0181031 0.0151488 0.0118572 0.138655 0.0244954 0.0294962 0.0782104 0.0371116 0.00976872 0.0782104 0.00760594 0.0109898 0.0877689 0.0831765 0.0151488 0.0221905 0.00790366 0.0221905 0.021599 0.0118572 0.0157662 0.00790366 0.082177 0.221374 0.0136882 0.0824658 0.0923878 0.0503251 0.0120314 0.0244954 0.0328244 0.00790366 0.00858434 0.0118572 0.0588268 0.00816951 0.00797274 0.0102849 0.0151488 0.0244954 0.0877689 0.0606986 0.0588268 0.0831765 0.0909148 0.0328244 0.00760594 0.0294962 0.0824658 0.00908091 0.0221905 0.0195097 0.117059 0.0248813 0.0417277 0.0120314 0.0391044 0.0698059 0.0364304 0.0328244 0.138655 0.00976872 0.0606986 0.0100133 0.00878122 0.0151488 0.0136882 0.0824658 0.0503251 0.0226112 0.0294962 0.0116913 0.0485429 0.0588268 0.136034 0.0364304 0.0151488 0.0391044 0.00760594 0.00790366 0.0782104 0.0923878 0.0116913 0.0116913 0.016849 0.0136882 0.0923878 0.0157727 0.00797274 0.0102849 0.0485429 0.0503251 0.00816951 0.0120314 0.0157662 0.00790366 0.0607373 0.021599 0.0248813 0.0221905 0.0367488 0.00878122 0.0364304 0.0328244 0.0782104 0.0248813 0.0120314 0.00760594 0.0244954 0.0248813 0.00908091 0.236958 0.0676886 0.082177 0.0116913 0.0221905 0.0367488 0.00878122 0.136034 0.00858434 0.136034 0.0157727 0.0485429 0.021599 0.0676886 0.0676886 0.0294962 
</DataArray>
<DataArray type="Float64" Name="cell variable 6" format="ascii">
0.0038835 0.000857904 8.84138e-05 5.3719e-06 0.000885689 1.10661e-05 0.000251962 1.10661e-05 0.0019189 0.00127682 3.76475e-06 0.00051123 3.15261e-05 6.33494e-06 0.000187165 8.3838e-05 0.00576492 0.000410215 0.000187165 0.000187165 0.000251962 8.43313e-06 0.00035504 0.00035504 0.00364689 0.000410215 0.00151522 0.235078 0.000410215 0.000885689 0.00364689 0.000115922 9.11938e-06 0.000115922 0.000885689 0.000410215 0.0019794 0.000110922 7.76673e-05 0.00439847 0.00202135 0.0038835 0.185318 1.32528e-05 0.000115922 4.64493e-06 4.32387e-06 0.000857904 0.000349016 8.84138e-05 2.09522e-05 2.80904e-05 0.000858618 0.00403961 7.76673e-05 0.235078 5.74138e-06 4.69278e-05 4.32387e-06 1.38076e-05 0.000187165 0.432355 6.33494e-06 5.3719e-06 4.69278e-05 0.000251962 4.21468e-06 2.09522e-05 0.000394946 0.00202135 0.000110922 0.000380196 0.000696942 0.000251962 0.3398 0.0019189 0.0019794 0.000394946 0.000696942 4.32387e-06 0.000858618 5.81379e-05 0.000410215 3.15261e-05 0.000696942 0.00127682 6.33494e-06 4.64493e-06 3.76475e-06 0.0019189 0.00151522 5.81379e-05 0.0019794 0.00439847 9.11938e-06 9.11938e-06 0.533485 1.32528e-05 0.000380196 0.000251962 0.000380196 6.33494e-06 1.32528e-05 0.00439847 0.000110922 1.32528e-05 0.00051123 0.000251962 0.000857904 1.38076e-05 0.000251962 3.15261e-05 3.81646e-05 7.76673e-05 0.298329 0.00576492 0.000251962 8.84138e-05 4.32387e-06 3.156e-05 0.00202135 0.00035504 0.00127682 0.00310284 0.00151522 7.76673e-05 0.00628005 0.000187165 8.43313e-06 0.000349016 0.000349016 3.81646e-05 3.156e-05 0.00151522 8.3838e-05 5.74138e-06 0.000394946 3.156e-05 6.33494e-06 3.156e-05 3.15261e-05 7.8448e-06 4.21468e-06 0.00403961 0.000251962 9.11938e-06 8.3838e-05 8.43313e-06 0.00628005 2.09522e-05 0.00035504 9.11938e-06 0.00439847 1.32528e-05 7.8448e-06 0.00364689 1.38076e-05 3.15261e-05 0.000251962 5.74138e-06 5.3719e-06 1.10661e-05 2.09522e-05 5.74138e-06 0.00035504 3.81646e-05 8.84138e-05 0.000857904 4.32387e-06 0.0019794 0.02163 0.208208 0.000187165 0.0019189 0.00439847 0.00439847 7.8448e-06 7.8448e-06 0.00310284 0.185318 4.21468e-06 7.8448e-06 7.8448e-06 8.84138e-05 0.000858618 0.000885689 8.84138e-05 4.32387e-06 0.00439847 2.09522e-05 0.000251962 1.38076e-05 5.3719e-06 0.00127682 0.000394946 3.156e-05 1.10661e-05 3.81646e-05 2.80904e-05 0.000394946 3.15261e-05 0.00202135 0.298329 8.84138e-05 0.000110922 0.000394946 0.000696942 5.81379e-05 3.81646e-05 0.000858618 0.000349016 7.76673e-05 0.000110922 0.000410215 0.0038835 0.3398 0.0038835 7.76673e-05 0.000187165 5.3719e-06 0.0441278 0.0038835 0.000857904 0.000696942 0.00310284 2.80904e-05 0.00035504 0.00364689 0.000885689 3.81646e-05 0.0038835 1.4406e-05 2.09522e-05 4.64493e-06 6.33494e-06 1.32528e-05 4.64493e-06 0.00051123 0.000696942 0.000110922 8.43313e-06 0.0671729 0.00310284 4.32387e-06 0.00628005 0.00127682 1.4406e-05 4.69278e-05 0.0019794 5.3719e-06 4.64493e-06 0.00202135 0.000115922 0.0019794 0.0038835 3.81646e-05 4.64493e-06 0.000696942 0.000858618 0.000885689 4.32387e-06 0.000349016 0.00051123 0.000696942 0.0019794 0.000110922 3.76475e-06 1.38076e-05 0.000885689 1.32528e-05 4.32387e-06 3.156e-05 0.432355 0.000251962 0.000380196 0.000110922 0.0019794 0.000110922 1.10661e-05 0.0019189 0.185318 4.69278e-05 2.80904e-05 1.38076e-05 0.0566856 0.000110922 0.000187165 0.00310284 0.000394946 7.8448e-06 0.00310284 3.76475e-06 1.10661e-05 0.00628005 0.00364689 2.80904e-05 8.3838e-05 4.21468e-06 8.3838e-05 7.76673e-05 1.38076e-05 3.15261e-05 4.21468e-06 0.00576492 0.185318 2.09522e-05 0.00403961 0.00439847 0.000857904 1.4406e-05 0.000110922 0.000251962 4.21468e-06 5.3719e-06 1.38076e-05 0.00127682 4.64493e-06 4.32387e-06 9.11938e-06 2.80904e-05 0.000110922 0.00628005 0.00151522 0.00127682 0.00364689 0.0038835 0.000251962 3.76475e-06 0.000187165 0.00403961 6.33494e-06 8.3838e-05 5.81379e-05 0.02163 0.000115922 0.00051123 1.4406e-05 0.000410215 0.0019794 0.000349016 0.000251962 0.0566856 7.8448e-06 0.00151522 8.43313e-06 5.74138e-06 2.80904e-05 2.09522e-05 0.00403961 0.000857904 8.84138e-05 0.000187165 1.32528e-05 0.000858618 0.00127682 0.0441278 0.000349016 2.80904e-05 0.000410215 3.76475e-06 4.21468e-06 0.00310284 0.00439847 1.32528e-05 1.32528e-05 3.81646e-05 2.09522e-05 0.00439847 3.156e-05 4.32387e-06 9.11938e-06 0.000858618 0.000857904 4.64493e-06 1.4406e-05 3.15261e-05 4.21468e-06 0.00202135 7.76673e-05 0.000115922 8.3838e-05 0.00035504 5.74138e-06 0.000349016 0.000251962 0.00310284 0.000115922 1.4406e-05 3.76475e-06 0.000110922 0.000115922 6.33494e-06 0.235078 0.0019189 0.00576492 1.32528e-05 8.3838e-05 0.00035504 5.74138e-06 0.0441278 5.3719e-06 0.0441278 3.156e-05 0.000858618 7.76673e-05 0.0019189 0.0019189 0.000187165 
</DataArray>
<DataArray type="Float64" Name="cell variable 7" format="ascii">
0.357275 0.264653 0.176526 0.0863829 0.262734 0.109939 0.214434 0.109939 0.306453 0.285858 0.0738515 0.24144 0.142821 0.091923 0.203114 0.174715 0.334908 0.233945 0.203114 0.203114 0.214434 0.10127 0.2268 0.2268 0.340125 0.233945 0.290041 0.481302 0.233945 0.262734 0.340125 0.185875 0.103782 0.185875 0.262734 0.233945 0.311423 0.184332 0.172124 0.360012 0.288948 0.357275 0.511928 0.115625 0.185875 0.0813708 0.0788486 0.264653 0.225806 0.176526 0.129973 0.139181 0.259721 0.337987 0.172124 0.481302 0.0886341 0.15552 0.0788486 0.116913 0.203114 0.58017 0.091923 0.0863829 0.15552 0.214434 0.0779382 0.129973 0.227704 0.288948 0.184332 0.230311 0.255368 0.214434 0.544906 0.306453 0.311423 0.227704 0.255368 0.0788486 0.259721 0.162493 0.233945 0.142821 0.255368 0.285858 0.091923 0.0813708 0.0738515 0.306453 0.290041 0.162493 0.311423 0.360012 0.103782 0.103782 0.633332 0.115625 0.230311 0.214434 0.230311 0.091923 0.115625 0.360012 0.184332 0.115625 0.24144 0.214434 0.264653 0.116913 0.214434 0.142821 0.148901 0.172124 0.543895 0.334908 0.214434 0.176526 0.0788486 0.142859 0.288948 0.2268 0.285858 0.329428 0.290041 0.172124 0.347352 0.203114 0.10127 0.225806 0.225806 0.148901 0.142859 0.290041 0.174715 0.0886341 0.227704 0.142859 0.091923 0.142859 0.142821 0.0989326 0.0779382 0.337987 0.214434 0.103782 0.174715 0.10127 0.347352 0.129973 0.2268 0.103782 0.360012 0.115625 0.0989326 0.340125 0.116913 0.142821 0.214434 0.0886341 0.0863829 0.109939 0.129973 0.0886341 0.2268 0.148901 0.176526 0.264653 0.0788486 0.311423 0.399197 0.488241 0.203114 0.306453 0.360012 0.360012 0.0989326 0.0989326 0.329428 0.511928 0.0779382 0.0989326 0.0989326 0.176526 0.259721 0.262734 0.176526 0.0788486 0.360012 0.129973 0.214434 0.116913 0.0863829 0.285858 0.227704 0.142859 0.109939 0.148901 0.139181 0.227704 0.142821 0.288948 0.543895 0.176526 0.184332 0.227704 0.255368 0.162493 0.148901 0.259721 0.225806 0.172124 0.184332 0.233945 0.357275 0.544906 0.357275 0.172124 0.203114 0.0863829 0.422896 0.357275 0.264653 0.255368 0.329428 0.139181 0.2268 0.340125 0.262734 0.148901 0.357275 0.118245 0.129973 0.0813708 0.091923 0.115625 0.0813708 0.24144 0.255368 0.184332 0.10127 0.46057 0.329428 0.0788486 0.347352 0.285858 0.118245 0.15552 0.311423 0.0863829 0.0813708 0.288948 0.185875 0.311423 0.357275 0.148901 0.0813708 0.255368 0.259721 0.262734 0.0788486 0.225806 0.24144 0.255368 0.311423 0.184332 0.0738515 0.116913 0.262734 0.115625 0.0788486 0.142859 0.58017 0.214434 0.230311 0.184332 0.311423 0.184332 0.109939 0.306453 0.511928 0.15552 0.139181 0.116913 0.413855 0.184332 0.203114 0.329428 0.227704 0.0989326 0.329428 0.0738515 0.109939 0.347352 0.340125 0.139181 0.174715 0.0779382 0.174715 0.172124 0.116913 0.142821 0.0779382 0.334908 0.511928 0.129973 0.337987 0.360012 0.264653 0.118245 0.184332 0.214434 0.0779382 0.0863829 0.116913 0.285858 0.0813708 0.0788486 0.103782 0.139181 0.184332 0.347352 0.290041 0.285858 0.340125 0.357275 0.214434 0.0738515 0.203114 0.337987 0.091923 0.174715 0.162493 0.399197 0.185875 0.24144 0.118245 0.233945 0.311423 0.225806 0.214434 0.413855 0.0989326 0.290041 0.10127 0.0886341 0.139181 0.129973 0.337987 0.264653 0.176526 0.203114 0.115625 0.259721 0.285858 0.422896 0.225806 0.139181 0.233945 0.0738515 0.0779382 0.329428 0.360012 0.115625 0.115625 0.148901 0.129973 0.360012 0.142859 0.0788486 0.103782 0.259721 0.264653 0.0813708 0.118245 0.142821 0.0779382 0.288948 0.172124 0.185875 0.174715 0.2268 0.0886341 0.225806 0.214434 0.329428 0.185875 0.118245 0.0738515 0.184332 0.185875 0.091923 0.481302 0.306453 0.334908 0.115625 0.174715 0.2268 0.0886341 0.422896 0.0863829 0.422896 0.142859 0.259721 0.172124 0.306453 0.306453 0.203114 
</DataArray>
<DataArray type="Float64" Name="cell variable 8" format="ascii">