<VTKFile type="UnstructuredGrid" version="0.1">
<UnstructuredGrid>
<Piece  NumberOfPoints="    3407" NumberOfCells="    2497">
<Points>
<DataArray type="Float64" NumberOfComponents="3" format="ascii">
13.2034 33.3793 0 
16.0668 13.8271 0 
-18.3327 -21.8875 0 
41.2453 19.2229 0 
16.8969 5.37606 0 
-22.2209 1.84921 0 
-29.7308 30.5965 0 
56.7872 23.1165 0 
54.179 -3.57324 0 
3.79641 -50.2415 0 
26.7501 -1.78642 0 
5.9557 31.6043 0 
0.163519 -60.0156 0 
49.1353 -12.7762 0 
28.5748 27.5533 0 
5.71501 -19.9413 0 
-41.6584 35.9957 0 
-12.9883 34.5347 0 
-48.0331 24.9905 0 
-46.2165 26.8929 0 
-7.28928 54.3563 0 
37.0447 15.6751 0 
53.5956 1.09349 0 
11.9161 1.78334 0 
2.88547 -59.6544 0 
-22.8941 22.3233 0 
-15.72 -22.2699 0 
16.8354 -51.0322 0 
17.1118 -18.7859 0 
-2.05764 -43.4335 0 
3.41579 -36.4289 0 
-32.8859 -36.9538 0 
-56.2546 -23.6627 0 
-56.5409 -3.9284 0 
-54.7886 -28.803 0 
-12.7244 -27.46 0 
-15.1423 49.2099 0 
17.8608 13.1453 0 
-9.96779 8.55934 0 
-40.795 5.56871 0 
-31.752 -37.7898 0 
-14.4647 -39.7588 0 
-0.705424 -19.9841 0 
-42.6825 -21.9504 0 
-24.6847 39.5915 0 
-10.6128 44.6016 0 
-23.5055 -0.707151 0 
54.1984 10.3501 0 
9.88937 41.1753 0 
-23.5886 22.9335 0 
4.79546 38.3307 0 
-1.95844 -60.1196 0 
-49.0747 -18.0922 0 
37.79 5.31534 0 
-35.8025 28.6816 0 
22.0943 42.832 0 
32.5593 37.0836 0 
19.9278 19.2984 0 
24.8105 -52.5884 0 
12.1583 -58.156 0 
-37.7097 42.8427 0 
45.2866 -22.0329 0 
-1.34092 -60.0211 0 
-8.13995 -0.736712 0 
-22.3591 47.834 0 
29.833 -16.1281 0 
46.7904 -20.2557 0 
45.0881 -35.1083 0 
46.2307 -34.5841 0 
-35.546 23.1656 0 
28.0446 -7.45023 0 
-23.478 -10.7752 0 
6.33316 -51.83 0 
-42.1754 24.2231 0 
33.3946 5.80436 0 
36.9565 -5.54532 0 
-54.9145 -18.9592 0 
-35.1786 24.5042 0 
-8.36082 -39.9385 0 
14.0203 2.52487 0 
-6.75858 16.1894 0 
19.4874 29.4309 0 
-20.2751 -20.3297 0 
-37.6868 14.6225 0 
-1.3976 -15.9379 0 
3.36795 51.3607 0 
24.7373 -11.8345 0 
-51.9182 22.3851 0 
58.3122 24.9283 0 
-1.97244 -40.2862 0 
-41.1858 -23.915 0 
-13.2161 16.6941 0 
44.8954 11.9133 0 
15.0289 24.255 0 
-44.0634 -18.6371 0 
45.6595 41.5271 0 
60.0896 -4.4495 0 
6.02984 -45.6229 0 
41.6285 36.9796 0 
-47.1294 3.15954 0 
14.729 -57.8563 0 
-4.0529 1.82657 0 
-28.5977 47.1347 0 
-29.0897 -9.30351 0 
25.2985 1.69636 0 
-27.5532 -0.526155 0 
29.8405 30.3898 0 
21.8722 -1.71287 0 
42.3432 20.5983 0 
-37.9769 32.0791 0 
-2.4804 -7.44841 0 
-35.0157 24.739 0 
-14.6917 10.4649 0 
54.665 -16.308 0 
33.1056 35.6277 0 
-0.318133 -28.2019 0 
-36.4687 43.3583 0 
15.2067 -50.5794 0 
-11.0892 -46.0988 0 
-5.0078 54.4315 0 
61.991 13.2146 0 
14.6503 -1.30306 0 
-47.9772 26.1516 0 
-1.93648 23.5937 0 
15.8047 -48.3088 0 
-3.05661 -4.42984 0 
-32.9606 -43.5744 0 
35.5824 20.6521 0 
9.79205 11.5074 0 
-54.1623 -8.89784 0 
23.3021 47.0948 0 
-45.2946 -2.56037 0 
22.4848 8.55087 0 
-24.4407 -38.3014 0 
-8.42856 -5.43301 0 
-38.107 4.93825 0 
-21.8353 -39.779 0 
34.8751 -48.8808 0 
8.98244 17.6656 0 
7.85357 -5.20114 0 
46.0939 -2.41822 0 
-58.8994 13.2206 0 
23.2994 45.2433 0 
-12.686 34.2242 0 
-25.3038 -6.08264 0 
-23.8621 29.3304 0 
-55.4926 26.7235 0 
-49.3595 -22.4496 0 
-51.9104 -4.0661 0 
0.21482 50.4495 0 
35.5684 41.712 0 
60.3018 -13.9282 0 
-55.1058 -5.27528 0 
21.3511 -32.3703 0 
-45.9575 -38.3985 0 
30.5637 19.8545 0 
18.2319 38.0368 0 
39.8951 24.8584 0 
40.345 31.5044 0 
34.0376 13.2091 0 
-45.9071 -8.37978 0 
-25.2437 -29.9783 0 
39.9312 -0.94806 0 
16.6526 31.1117 0 
-6.89958 -58.1185 0 
44.7349 -13.3885 0 
38.8226 27.3196 0 
35.9812 -37.0755 0 
2.71987 35.9901 0 
6.31432 43.9382 0 
54.3545 14.5306 0 
17.7265 22.4123 0 
43.8942 45.8342 0 
-26.5557 -53.0393 0 
12.5129 -15.4181 0 
-18.7239 40.0836 0 
-29.2704 51.9323 0 
-56.2482 5.54671 0 
21.8138 -38.2373 0 
29.7754 -17.8019 0 
7.6929 -35.0079 0 
1.84597 48.637 0 
-16.9107 43.9255 0 
-2.70859 8.54613 0 
-23.2494 39.2844 0 
-8.0524 45.8136 0 
29.4089 -30.0171 0 
50.3683 -25.6103 0 
22.3983 -21.6454 0 
-55.9681 -26.9441 0 
4.81032 45.0133 0 
30.3156 12.0912 0 
-11.4607 -34.4421 0 
4.27957 58.8154 0 
-55.5945 10.7453 0 
35.9021 21.2055 0 
12.5578 24.9265 0 
-39.6297 18.5082 0 
7.13636 8.86118 0 
50.4227 -24.7256 0 
12.8005 46.6183 0 
60.3062 -5.55037 0 
-28.7986 23.7 0 
-29.9953 -30.4716 0 
-8.26236 -22.9776 0 
-3.38195 29.4453 0 
-52.068 -28.062 0 
44.1123 -35.1324 0 
-4.5844 -10.2781 0 
0.471479 -28.4742 0 
-10.1553 -46.8678 0 
-38.3093 -39.3324 0 
-19.9751 55.5349 0 
14.595 -2.05048 0 
13.321 50.5591 0 
40.4131 -24.8201 0 
5.66519 47.934 0 
-11.773 37.7889 0 
-16.763 26.1584 0 
-9.91424 52.6638 0 
-28.3437 39.572 0 
-55.2262 6.60534 0 
47.8261 5.08824 0 
-12.7451 15.0087 0 
24.6401 49.4603 0 
33.2782 6.16633 0 
33.7672 -23.8671 0 
31.3519 33.1336 0 
31.5248 -42.1192 0 
-9.16412 46.4397 0 
-4.51846 41.1808 0 
33.5468 -4.43848 0 
-27.8524 7.54924 0 
-37.4334 14.1627 0 
-52.2282 -29.2574 0 
-33.6823 4.59614 0 
28.2853 48.9666 0 
-15.9028 14.3845 0 
-48.6266 23.8472 0 
-42.6961 -33.6437 0 
-24.8987 -34.9415 0 
-2.18469 42.8699 0 
-38.8131 -14.2773 0 
14.5588 -2.26637 0 
45.2079 -22.7989 0 
-7.12472 -17.1308 0 
4.11451 25.267 0 
-11.2957 -43.2156 0 
-19.4696 37.6963 0 
-45.1408 44.355 0 
-52.3297 0.794755 0 
36.5448 -41.37 0 
15.0903 14.9231 0 
55.2342 -21.3639 0 
15.1588 -42.5605 0 
-18.348 -47.4641 0 
-61.2405 -4.1182 0 
-8.97677 24.6293 0 
53.6508 -3.0357 0 
-29.5834 -29.4073 0 
-33.8755 -36.8449 0 
11.787 -14.8433 0 
21.6365 26.6188 0 
44.9892 -2.26266 0 
7.80159 -32.9298 0 
32.6158 -20.8393 0 
-16.9242 20.2293 0 
-27.6631 -42.9098 0 
-15.3746 1.35785 0 
54.3111 -29.1428 0 
-26.7446 54.1074 0 
-25.6619 -23.1669 0 
-29.3312 -4.54997 0 
-45.5428 -41.006 0 
29.7934 19.4031 0 
-0.0880301 -37.172 0 
-32.7981 -45.3682 0 
23.0667 -3.55395 0 
-22.2596 46.3563 0 
-12.2329 -9.92546 0 
-16.6262 36.178 0 
10.1801 35.3021 0 
-10.2861 -33.8494 0 
35.7381 -9.27471 0 
18.1819 -12.293 0 
-17.276 49.4035 0 
49.3545 -2.39415 0 
-53.3251 -18.2197 0 
40.1729 -7.44732 0 
-29.0126 19.5973 0 
-37.3401 -3.86857 0 
-8.45932 -50.3324 0 
-6.69865 34.424 0 
-34.9197 32.6713 0 
-56.2063 10.88 0 
7.01218 6.43813 0 
-22.8418 -53.441 0 
0.549638 49.4165 0 
-20.8833 28.0694 0 
-10.3528 -56.521 0 
-14.9525 14.8885 0 
13.7289 38.4725 0 
-14.072 -56.7712 0 
43.2265 18.9506 0 
-49.5194 15.5282 0 
38.0741 -31.9703 0 
13.3601 60.1108 0 
3.25351 26.0397 0 
17.6223 46.8773 0 
-9.56315 -10.1572 0 
53.9783 14.6624 0 
-16.976 -2.69679 0 
-56.8775 -0.0941499 0 
23.5959 -52.7554 0 
27.9957 -9.85012 0 
-46.6216 8.43826 0 
-30.7814 25.1086 0 
-11.1987 -25.6087 0 
55.9095 -18.2411 0 
37.171 13.6002 0 
45.263 -42.1567 0 
55.2294 -12.6669 0 
15.5285 -36.3459 0 
43.6803 3.64866 0 
32.2032 40.9796 0 
-1.03664 -5.533 0 
-18.5645 -15.8214 0 
13.2246 -42.0329 0 
35.7749 19.8472 0 
-47.4912 2.24998 0 
32.4568 -22.1713 0 
-37.3468 -3.90445 0 
3.86303 -16.2968 0 
-44.7598 -47.9569 0 
34.394 49.4957 0 
34.1711 -35.3756 0 
-49.855 14.8003 0 
-34.668 51.2217 0 
0.0464909 60.0663 0 
-37.2664 30.7709 0 
-8.90963 53.6053 0 
-0.663835 27.3121 0 
32.6093 -21.7685 0 
1.82514 35.8948 0 
-12.7931 -56.7949 0 
29.8852 54.3243 0 
-3.79952 32.6155 0 
1.29492 -18.1225 0 
-15.4003 10.9319 0 
50.202 16.1422 0 
47.6276 6.97836 0 
-28.8772 10.7401 0 
-26.7611 11.5532 0 
-5.39428 -10.5817 0 
14.8829 -20.4222 0 
-28.7987 41.4904 0 
8.66838 54.9982 0 
-0.203145 50.5861 0 
-11.1253 -25.1929 0 
25.7946 -55.9135 0 
10.4406 -11.0909 0 
4.03473 25.4049 0 
-54.9734 12.2077 0 
-34.5496 10.5117 0 
22.9381 -24.8283 0 
5.32575 31.1412 0 
-49.736 3.00143 0 
31.137 42.6285 0 
-35.5168 1.38083 0 
1.7675 -0.941534 0 
-4.52924 -34.2352 0 
32.6217 9.37887 0 
-26.2882 -53.0831 0 
23.4236 54.8288 0 
7.14258 -34.5815 0 
-37.2575 -42.742 0 
40.277 -42.1582 0 
0.711096 -60.0803 0 
-18.7385 21.974 0 
5.60273 -9.75929 0 
59.6863 11.7588 0 
43.5608 29.2769 0 
22.4259 15.4412 0 
20.5815 10.0228 0 
13.9046 -14.3361 0 
-49.3882 29.7276 0 
-18.5326 7.76963 0 
39.9726 -13.6584 0 
-16.7113 56.2378 0 
-13.6249 -17.2734 0 
-46.322 20.9974 0 
-7.7039 6.41517 0 
15.0689 52.326 0 
-30.7534 -11.6686 0 
30.0198 -15.2602 0 
-64.6474 4.40633 0 
-10.8058 8.52663 0 
15.7498 -13.5066 0 
-20.8131 55.032 0 
-32.9082 -45.1605 0 
-11.2431 28.4467 0 
-30.4717 -41.4177 0 
16.7972 60.7493 0 
-20.0907 -55.1441 0 
4.9281 -51.7705 0 
-21.3413 -47.96 0 
-22.2527 27.4564 0 
-41.5424 18.6835 0 
-7.07864 -16.4436 0 
20.6248 34.9502 0 
-38.911 -29.2229 0 
-9.21154 10.1785 0 
50.2346 32.7961 0 
-45.2511 34.5454 0 
-31.0665 -54.8939 0 
-25.8587 33.3304 0 
-9.17305 -0.0828338 0 
0.333354 16.0734 0 
-11.1036 -44.0404 0 
-10.7759 -2.34926 0 
26.3314 -43.4462 0 
-3.23998 0.175889 0 
12.4406 5.21437 0 
41.6459 21.7237 0 
17.3258 -56.6575 0 
-4.5784 39.4766 0 
8.39566 -35.903 0 
-11.538 -17.2716 0 
-43.8158 35.4622 0 
13.8436 23.9771 0 
29.3891 -47.8414 0 
-50.7708 31.6402 0 
-0.754287 16.5397 0 
-16.7708 15.0443 0 
-35.6149 -2.05856 0 
26.6037 -33.0873 0 
-13.3805 -2.15049 0 
10.0586 -10.3327 0 
-40.427 -6.77219 0 
-54.0879 9.03225 0 
-17.9523 -30.6746 0 
9.10679 -50.4449 0 
12.3575 31.5011 0 
11.209 -30.6615 0 
34.3373 -35.0354 0 
-42.7232 -35.4051 0 
-19.49 -12.679 0 
-46.0784 -39.2403 0 
-19.1544 -30.1346 0 
-0.181415 16.8547 0 
-29.3009 -8.42864 0 
45.4062 -20.8601 0 
55.4488 2.47352 0 
-34.8304 -21.5789 0 
42.4162 37.3308 0 
32.3518 -35.985 0 
28.6735 -48.2973 0 
22.9933 -33.2367 0 
26.6098 -1.43693 0 
29.0883 17.3317 0 
-47.3802 -4.85544 0 
-44.4294 -31.9134 0 
54.2135 30.1321 0 
-0.211725 25.574 0 
33.2828 -48.9301 0 
21.3912 -38.8816 0 
-0.110127 3.26731 0 
47.5314 23.1816 0 
45.3093 42.4506 0 
24.4003 9.3486 0 
-50.757 -18.9358 0 
2.0484 11.2216 0 
26.2173 -42.3437 0 
18.2163 21.9935 0 
17.7613 -5.5028 0 
-14.534 -34.1656 0 
-2.51587 -36.0691 0 
-16.0134 27.0388 0 
25.0274 -27.6776 0 
4.91283 38.6437 0 
38.5319 39.1127 0 
-8.28178 7.2393 0 
22.0689 -32.4043 0 
-18.0462 -9.5 0 
4.84322 -55.9889 0 
-13.3801 -8.89676 0 
-12.0316 -10.8891 0 
45.1379 -10.8028 0 
8.59226 -22.1325 0 
-13.9676 -40.9911 0 
35.1747 4.3668 0 
-45.6999 -26.8852 0 
-4.75487 54.3983 0 
0.426872 -54.1463 0 
[...]
<CellData Scalars="wall variable 0">
<DataArray type="Float64" Name="wall length" format="ascii">
1.71675 10.9539 0.940879 0.172764 10.797 0.336632 0.199287 4.03655 0.616218 5.29101 1.15686 9.19469 3.5045 6.32985 0.818528 0.996316 1.77141 3.40685 3.50734 3.511 8.46902 0.350815 1.27368 2.85545 2.80537 2.42436 0.739502 1.02325 3.52402 0.988023 4.74116 5.1847 0.795755 11.744 0.885009 3.10978 3.59405 6.10873 0.392258 5.14939 2.75489 1.43064 2.43714 0.743879 8.27454 3.17544 5.29911 1.77694 2.56371 0.795755 0.527398 4.52128 0.333671 6.77346 3.66343 0.347387 3.15652 6.29057 1.46655 1.90351 2.00236 1.83618 0.63375 4.47658 5.31419 1.7046 7.25333 2.36682 1.26014 6.99959 0.940709 1.21762 3.62271 0.67426 5.54465 1.54634 6.98681 1.85432 1.72109 8.45842 0.31599 1.27453 10.2793 0.905653 2.13907 5.09165 4.4859 3.98079 1.96743 2.71625 5.17415 0.692599 2.65152 0.9552 5.05193 0.0283272 2.40104 6.71888 0.577555 1.95186 0.715264 8.56588 3.17202 0.809684 6.66116 5.24165 4.37031 0.547034 1.77946 2.54242 0.768153 5.06695 3.11403 0.294879 8.8192 4.04467 3.05092 1.95493 5.45216 5.14651 0.692599 0.828678 7.99743 0.779357 3.05092 3.02362 2.41814 3.33738 4.34487 4.48494 3.24965 1.5652 2.82762 1.68266 3.26199 1.01629 2.95605 0.963504 5.9596 1.37749 1.26568 0.963504 4.19948 5.3231 0.328537 0.976224 9.04368 3.69356 2.73726 0.849047 4.95284 6.30781 0.391747 3.40123 6.60932 0.408549 1.61277 8.46902 1.59365 5.69194 5.0351 3.42708 4.09038 1.22875 5.36226 3.96697 0.304593 4.17039 8.0206 3.50336 6.84478 4.75958 5.77738 3.0877 9.74752 1.29523 8.84235 0.477282 3.21885 2.66048 2.54798 2.95807 1.11866 0.853192 4.76207 5.45712 0.579342 5.09508 2.61074 7.03831 1.01629 1.89137 3.36356 1.42831 2.07751 0.454131 7.03156 3.59644 6.67143 2.36315 0.456946 1.72423 2.43756 3.95512 4.40653 6.38486 1.15559 4.68545 0.112967 13.771 0.691462 0.59566 4.93588 6.50766 0.225218 2.01934 1.01081 3.68762 0.0283272 0.253691 4.52459 2.2928 0.602077 6.04384 0.171867 8.97365 1.12554 3.30138 7.37585 2.01612 6.42442 4.85215 4.90393 1.10064 9.7478 1.21225 0.75936 2.14038 5.34188 3.53103 0.103715 0.922894 2.89964 6.90222 2.91354 2.2864 5.22711 3.41661 0.385591 1.16827 6.77057 1.05203 9.01132 0.519289 2.72513 3.81108 2.8947 0.714397 7.00164 6.21738 4.58233 6.29057 0.154289 7.3242 3.16728 3.5135 3.41665 3.30138 2.04256 5.95498 4.13956 5.55475 0.86607 2.01404 5.22711 2.07363 9.39281 4.3062 7.54296 0.978119 2.25436 5.43156 0.225218 6.09436 3.57691 3.00892 1.46561 1.04231 3.22484 1.09979 0.333671 4.58233 4.30816 1.36155 1.70152 2.43756 2.30996 4.76451 5.08182 2.8062 4.52128 0.952818 2.83799 3.58242 4.11342 2.06789 3.90658 8.75158 7.94715 1.24506 7.14566 2.48555 4.0036 0.63375 2.85125 0.575612 0.328537 2.77481 1.26384 3.59149 4.94777 11.1437 3.41837 1.42366 1.19049 1.40354 3.96697 4.71413 1.90403 5.83139 1.7027 0.874723 2.14493 8.4284 1.61277 6.64553 0.057962 6.82004 0.940709 0.119977 0.761622 2.37846 0.350815 0.900267 8.72773 1.17069 1.05231 6.10422 2.11962 1.4477 2.01506 11.0921 0.912607 2.52116 5.0824 4.99205 1.76242 3.27212 0.733413 1.38242 7.01204 7.27301 1.05169 8.44502 1.70407 7.54296 3.00427 0.779357 6.91014 7.72682 0.22287 2.57252 1.95493 0.932676 5.0857 1.011 4.85966 1.98741 9.04145 0.945697 9.73259 1.8633 7.76955 1.04801 2.02821 3.81988 0.323337 1.78409 3.36117 5.47787 4.57804 0.94001 1.83245 3.66343 2.16112 5.0824 5.06386 0.684946 1.51935 0.602077 4.26185 2.01889 1.49362 9.02068 1.59535 4.70538 5.38841 1.82248 0.199287 5.23081 2.17963 2.15826 0.845064 4.24006 0.486253 0.653766 5.3679 0.335614 9.37412 1.42472 1.43013 1.96386 9.73259 2.33466 7.23633 1.34574 1.26898 0.792236 7.90582 1.08144 2.69163 5.1847 1.92709 2.95807 1.76051 3.95869 0.442336 3.19527 3.30211 0.371229 0.887287 3.02435 1.26898 6.58366 2.81456 4.45465 1.30277 0.821549 2.13866 7.40563 2.91664 3.10793 1.96743 1.22792 2.89186 6.64499 0.456946 8.16179 1.80591 3.77541 3.99922 2.82575 3.9008 2.02821 1.16669 3.46064 1.82158 5.09165 0.224847 9.15268 0.799661 1.76051 2.54798 1.25282 0.192008 1.00653 7.49057 1.74796 1.54634 5.58111 3.4178 7.87906 5.43364 2.42436 2.69163 2.48082 4.36617 0.526489 5.01221 3.1352 3.80328 1.32932 13.771 3.23297 2.72485 2.04483 0.817863 3.33738 6.61113 2.15445 10.9845 2.0957 10.2935 0.520429 8.22609 2.8277 7.67226 1.17798 1.83101 1.42998 5.88528 3.73266 0.767078 1.67464 2.83872 0.781591 0.41311 0.883963 3.1782 4.66515 4.93588 4.18073 1.80163 11.5606 0.918119 11.2338 0.326517 0.819277 1.18314 3.76769 0.845168 7.95839 4.37787 3.50217 4.72388 3.12265 0.768153 3.35409 1.24274 6.82004 0.771645 3.50336 4.1445 5.50884 1.7046 0.48442 3.36117 4.17433 0.849047 0.864992 2.14146 5.97368 4.03249 1.05231 1.01034 0.845064 1.23412 1.22927 2.11472 3.87344 4.48681 9.04145 0.921218 10.9845 0.636614 1.34128 5.9596 1.26568 3.19181 4.29573 2.14038 1.80591 2.82302 0.31599 2.1523 3.5836 2.59687 5.78528 7.78661 5.08182 0.657429 4.4715 0.761622 1.70152 5.7215 1.26014 0.933253 5.09565 2.35586 3.59644 0.494452 6.93713 3.21444 0.783306 0.0523439 0.317803 7.77529 0.313667 3.22491 3.08254 0.748179 3.77581 0.419002 5.11546 5.21916 0.274864 2.8176 1.71675 1.82248 5.33861 3.42078 2.50063 7.39359 0.586588 6.55989 7.76955 0.931287 3.62271 7.30365 1.04801 7.30365 1.21762 1.9638 6.11623 0.76498 1.16669 6.44517 2.82601 4.89371 6.71888 2.81267 5.66492 0.551526 5.03142 0.519289 2.31787 0.987538 0.902437 3.72141 1.38289 1.89873 6.93598 0.240123 9.74114 5.18174 0.942761 6.44517 2.40104 3.68762 3.42535 2.71935 3.32013 1.17798 3.20965 1.68327 4.48494 3.30211 0.444485 1.5427 2.17004 3.32432 6.86881 1.02276 0.258915 0.918119 0.598138 1.88854 2.96743 3.17202 1.73034 7.72682 3.24678 6.88427 0.184933 4.18073 0.59566 4.49123 0.594404 5.87584 1.23529 1.26384 0.953096 2.73832 3.0877 2.39034 6.06199 6.10422 4.03249 5.61611 0.767078 5.07244 11.1437 0.558066 2.09904 4.48795 0.645472 1.68266 9.99831 1.6364 0.902437 5.09906 6.06477 0.20275 2.44546 5.05056 1.04231 4.63037 5.16444 1.7027 2.42147 1.10064 7.16961 9.03931 6.81783 4.67034 1.22854 0.297701 5.17863 4.07929 6.09583 2.51695 5.65537 1.0532 2.8176 5.34164 2.49056 0.792318 10.9539 0.882156 12.8209 1.19049 1.53386 10.7256 0.483775 4.4119 4.88634 0.213636 1.91463 1.37083 0.996316 7.40468 1.95719 0.864992 2.73726 0.689061 3.53033 0.646207 1.47792 5.73742 5.25264 1.45825 0.727556 1.08144 0.136649 3.51432 3.44276 3.92212 2.56371 3.56903 1.21899 1.14582 3.4178 1.3718 0.522191 11.744 5.34188 4.29573 3.84063 0.417234 5.92496 0.992708 5.2276 4.20445 1.21225 4.55765 1.90403 1.43933 2.69441 6.14659 1.16827 1.31597 2.53275 0.720706 4.29067 2.61217 1.57469 0.860447 6.316 8.72773 2.73832 8.20859 2.07751 1.60891 9.74752 5.61611 3.87344 0.889687 7.37924 1.67464 0.442336 9.11883 2.53275 6.57518 0.84071 2.48082 4.01703 6.46769 0.596307 2.74626 4.1479 3.33217 5.38188 3.21161 6.49301 1.28237 7.44933 3.74984 0.487005 7.94715 0.446257 0.862613 3.88127 2.83182 0.317803 6.46905 4.40653 1.84088 0.695837 0.376789 6.54352 3.62565 8.24226 0.374237 6.49301 0.458151 4.08658 0.530443 8.0206 2.21432 7.86951 2.61215 7.84366 0.819277 7.02919 5.29656 3.54392 2.26097 1.01923 7.03831 1.1408 3.41837 1.61038 5.43452 0.760878 0.689688 2.615 5.499 4.70169 11.2657 0.314631 7.40563 2.25504 0.545016 4.88325 3.08254 3.02435 8.13247 0.689061 3.69356 2.53032 0.792236 2.39034 0.477282 0.349623 3.90359 0.977253 4.41643 1.35288 0.575162 6.70319 5.14939 1.69249 1.47796 7.7186 6.04225 3.04599 4.71842 4.09038 1.23075 3.21444 2.6103 1.16588 9.01132 0.943493 1.13958 5.38188 0.838177 2.21432 0.93604 5.3231 4.09233 0.454131 8.20859 0.953096 2.77481 0.119977 6.99959 5.7215 1.36155 7.78661 3.55872 7.02188 0.695837 0.574745 1.15686 4.47614 2.96069 2.78534 6.11623 1.42746 2.49056 5.60477 0.271301 5.65467 2.30996 1.72423 2.82575 1.04395 4.56127 1.77141 1.37083 2.30921 6.66116 8.13495 0.774078 7.16078 0.673668 3.52402 5.31493 0.158893 4.95284 4.17433 1.78409 8.43463 0.432907 0.578524 6.77274 1.90351 2.33989 8.74167 2.19557 5.16444 3.63617 1.05169 0.932891 2.40032 2.18668 3.54392 0.437018 5.21916 3.36637 7.79164 1.43064 7.75278 0.737546 0.684946 3.81933 2.82762 1.75594 4.24006 1.01034 1.17069 6.316 7.68399 0.408549 7.09648 0.743005 4.42445 0.52923 6.64553 6.10873 5.15916 1.011 0.616376 4.24561 0.952818 0.527398 0.650369 11.0201 0.8192 2.89569 7.87983 1.22927 1.997 6.01789 1.1949 0.523495 2.69325 0.933253 2.36682 3.45376 0.805902 1.67596 3.36356 3.34698 3.44276 7.589 0.558066 4.94777 8.30016 2.54343 1.91009 2.99306 3.42117 5.65537 1.55686 3.5045 4.74255 0.645401 6.61665 3.45908 5.08647 4.13724 5.19195 1.61416 7.01204 1.69609 2.25436 6.98796 6.49958 3.55847 2.16479 0.731972 9.39281 1.97273 2.74455 0.606964 3.55847 0.329153 2.96348 4.72388 0.516909 4.36814 0.577555 4.89371 1.24264 3.5135 4.73069 4.25292 1.51773 2.00968 3.32432 1.05193 4.70538 6.50583 1.51834 0.387481 3.88127 3.95512 4.20584 1.76637 7.09888 2.55667 3.00892 4.40219 3.63811 2.42147 5.83139 4.55765 9.7478 3.80404 2.81456 0.314631 3.22491 2.33644 7.23633 5.00031 0.558094 3.92212 3.34698 1.89137 3.26199 0.20275 1.02815 4.81459 6.57518 1.31597 0.385591 6.16407 0.998015 8.0066 1.85432 3.01913 2.34859 3.70921 1.12759 3.41611 6.58366 1.34574 2.33644 0.313667 2.80707 0.727556 7.32292 4.45465 3.80404 2.33466 2.53032 6.30781 0.158893 1.00999 2.70373 0.136649 7.90582 0.616376 5.0857 6.55947 0.34115 9.07735 1.00999 8.43463 0.323337 3.47394 7.80788 2.49504 0.605357 4.25754 0.657429 4.76451 5.65467 4.45498 0.575162 2.27213 2.6103 6.93713 5.59342 1.4498 3.42078 1.25236 6.61665 0.183767 5.19039 5.09906 0.987538 3.04029 4.439 3.15652 8.67986 0.446257 8.75158 1.11294 0.154289 0.494496 4.68796 0.676663 7.09648 6.60932 2.86287 6.10333 3.23297 2.48874 2.73796 0.057962 0.52923 10.7755 0.769009 1.51773 2.06801 0.896438 6.84478 0.771645 2.7021 3.94187 1.47796 2.42723 0.682598 6.42442 1.35288 6.60558 0.729239 2.49504 0.271301 4.13881 3.04599 2.27213 1.22854 7.90866 0.885009 0.522191 1.18217 2.05391 8.25019 3.56903 1.77694 5.42524 0.526489 0.112967 8.51148 5.34899 6.7738 5.87584 0.545016 6.84716 3.9524 4.52459 1.76748 4.42312 0.510874 2.7021 2.01612 3.67914 0.265376 8.97365 7.06437 1.4477 0.188925 1.17516 0.522123 4.70169 4.29178 4.96722 9.37412 1.30569 0.717204 6.21267 1.46714 5.45712 1.01923 1.62443 2.48793 5.53443 2.91757 7.40468 0.818528 7.18818 2.02791 1.55738 1.88152 0.947227 3.76769 3.20806 6.48893 4.25055 6.9214 2.73796 1.12545 3.23817 1.76242 1.51834 0.194878 1.74266 1.33061 1.00628 2.54343 1.58312 7.85486 6.05599 5.53443 2.82485 3.71262 5.34899 0.594404 6.70319 4.45498 0.494452 0.658069 1.81625 2.35586 0.598848 0.661003 2.81284 1.40636 3.14965 0.692286 6.67143 4.42445 5.27932 1.47792 1.67093 10.7755 0.167103 0.586588 3.30865 5.19195 0.841426 2.74455 8.31816 3.97441 1.89873 0.895687 4.11121 6.51673 2.69325 5.60928 3.14829 0.598848 5.09565 2.54386 5.59313 0.483775 2.91757 6.39958 1.34723 0.258406 1.06719 5.06695 3.12265 2.96348 7.55415 4.13881 4.56127 3.9001 1.59365 4.71842 0.756981 4.92489 1.02815 6.06477 5.19039 0.581979 2.48874 6.61113 2.41814 4.6805 2.71625 0.536438 0.0628502 1.12545 3.78406 4.22727 2.80537 2.61226 2.78444 0.977253 1.87116 6.2887 1.43013 0.754425 1.04357 0.128075 0.882156 2.80431 2.05391 4.37787 1.08003 3.46064 0.76498 2.78534 0.590038 7.02919 2.4643 4.29178 5.499 2.6251 3.14965 5.29101 5.43367 2.87296 4.47614 4.23753 4.74255 3.50734 3.40392 1.88854 4.0036 5.90571 2.01889 0.819211 4.47658 2.13691 4.38488 0.992708 4.31106 6.97669 3.57161 1.41732 2.4177 4.69205 1.24274 4.13652 3.63617 4.63037 1.46561 2.55667 0.478737 8.44502 0.387481 7.85486 0.956943 0.658069 7.77529 2.83182 6.73262 4.57804 1.75532 3.78406 3.90359 5.89004 0.754425 1.42472 4.96722 1.14639 5.78996 0.110069 8.41863 1.76637 2.0967 4.65594 3.55872 2.58013 0.294879 1.51861 8.09352 2.88653 0.957843 1.41732 10.6515 1.18217 1.3718 5.58111 5.54465 5.17393 1.87116 0.419002 4.88506 3.64354 1.43638 0.845168 0.947227 5.70076 5.20728 4.13652 3.35409 2.54242 1.94078 1.34723 0.70548 1.30501 0.636614 2.15445 2.46743 3.06526 1.39665 7.96591 2.48555 0.724357 1.83101 3.32013 0.827285 1.49362 5.90571 3.42876 5.10283 0.988023 0.673668 3.06785 2.04256 1.12554 0.265376 1.08977 3.19181 9.04368 2.99796 3.84063 2.90127 5.01221 5.42524 5.29911 2.80707 5.11546 5.70076 1.88152 2.74732 2.82627 3.1782 0.184933 1.64002 2.16479 0.606964 0.841426 6.98796 3.57691 3.42535 6.04384 1.51935 0.737546 1.82572 1.50347 1.05347 0.578524 4.84813 5.00031 4.92489 3.03366 1.29251 6.64499 0.526346 5.31493 1.02325 4.28741 1.09979 0.503719 4.25055 4.99205 2.16112 6.77346 5.23231 5.11824 3.22895 1.91009 1.00628 4.44296 2.14146 1.95719 5.38661 4.68796 2.98982 8.8192 2.58013 2.96069 2.87296 0.764248 0.978119 1.70407 0.478737 7.09888 8.41863 3.9001 1.04395 3.99922 0.75119 1.34946 5.69194 1.79133 7.17732 2.07311 7.77218 2.34127 3.48608 7.6692 0.889687 2.11472 7.87983 0.850882 1.21201 0.417234 2.99796 0.976224 0.575612 5.07244 7.51462 3.11403 7.55415 0.329153 6.49958 2.07363 0.764248 0.110069 1.29523 1.60891 1.42831 1.67596 0.748327 3.47394 3.81988 4.26664 4.91223 0.70548 6.39958 1.55738 5.22951 6.22347 0.8372 2.15744 2.1523 8.45842 3.14277 7.44338 0.383448 0.733413 7.06071 1.47148 0.172764 4.6805 3.02362 4.04467 5.17415 1.13383 1.51861 1.26945 3.35082 4.03655 1.65091 6.01789 1.74266 8.11565 3.50742 7.2159 5.0351 1.34946 3.36186 0.86607 2.43527 4.8268 4.92009 4.76207 7.5117 0.895687 1.38289 4.1445 5.77738 0.580495 8.69454 1.53791 0.846486 5.78162 2.40032 2.55076 3.24678 3.3094 0.977101 2.44546 2.19557 3.4884 2.72485 6.10333 5.37765 4.73069 3.16728 2.03445 0.774078 0.526346 2.89186 3.45908 1.25236 6.55989 0.167103 0.572464 2.4177 0.957843 2.96355 0.697668 0.953675 5.17863 2.67844 1.53386 1.42366 1.1408 2.61074 1.00748 3.21885 4.92009 3.72141 0.720354 1.64729 7.63773 3.81933 9.02068 0.827285 2.71935 4.34487 5.50884 1.53791 1.20059 3.45376 7.25333 1.69609 1.38242 0.383448 3.40363 1.52865 2.01934 5.43156 3.59405 3.52649 1.54473 4.85966 5.15916 1.83037 4.11121 7.5117 0.853192 5.44265 3.42876 0.571127 7.87906 1.14582 8.25767 3.13588 0.690785 7.27301 1.61416 3.30865 7.39359 0.0628502 9.65516 3.17743 8.35949 2.01506 3.23817 0.536438 5.05193 1.14076 5.949 9.65516 0.756981 9.62848 2.00236 6.77274 3.03366 0.720325 11.2338 0.258915 3.30073 9.57245 1.46431 5.09508 1.46486 2.0957 0.921218 1.98741 1.54473 0.717904 6.81783 0.953675 2.33401 9.22813 1.25282 2.66048 1.00748 8.40894 0.290382 5.44265 1.11866 1.92709 4.74116 5.10283 2.5558 6.38486 6.46905 0.0523439 2.58581 5.62614 4.13956 2.2864 1.26945 10.6515 3.57161 5.20728 2.35699 0.748327 7.589 3.51432 2.70373 7.80788 9.57245 0.978596 0.828678 0.817863 3.90606 0.846486 6.87176 2.21128 0.922059 2.07311 5.03105 2.96355 2.88653 6.2917 0.874528 5.33138 3.1352 2.90127 3.17544 2.8062 2.48957 7.51462 0.645472 0.653339 1.50392 4.01703 2.69253 2.30106 11.2657 0.522123 0.697244 10.2793 2.31787 7.00164 5.71812 3.04029 3.95869 0.799661 6.48224 0.720706 9.11883 2.74732 6.48893 2.02258 0.444485 3.19527 3.41611 4.38166 7.49057 8.31738 0.52432 9.50946 0.103715 4.56095 2.69253 4.1479 0.503719 3.22484 5.05056 0.977101 2.86287 6.9214 4.25461 6.22347 1.72109 8.0066 1.79133 4.2189 5.23081 0.336632 0.0372856 4.13724 2.12296 1.40636 8.63253 2.61217 0.900267 7.06437 2.4643 2.55076 0.932891 3.00427 4.3062 0.731972 1.64002 6.88427 1.61038 4.71413 5.36226 0.450945 1.81488 2.12584 3.77297 3.74984 5.05644 0.635226 11.0201 1.37749 1.34128 0.75936 4.20445 4.2523 9.99831 3.80507 0.326517 0.720325 3.3574 3.80328 5.33138 5.08139 0.564054 4.36617 0.84071 4.81459 1.42318 1.08285 0.839615 8.65149 0.197355 4.04075 2.81747 1.93255 2.25663 0.240123 2.09904 2.99306 3.22895 1.61707 1.88628 6.24883 0.373881 3.36637 5.33861 5.38841 1.05193 2.17004 0.676663 5.38661 5.73742 5.27932 0.743005 1.46431 6.87176 3.3094 4.49123 0.691462 1.32932 3.3574 4.38473 5.3679 1.48491 2.0967 3.63811 0.572464 8.31816 1.97273 3.50217 4.69205 5.78315 7.06071 3.27212 0.690785 2.50063 1.4498 4.41643 2.78444 5.50423 6.60558 4.439 5.71812 0.714397 2.2437 1.24506 6.80605 6.93598 3.97441 0.447276 4.85215 0.682598 5.79532 0.839615 4.67034 0.717904 3.52649 3.10978 7.90866 0.128075 2.65537 2.55856 2.61215 2.74444 0.304593 1.40354 12.8209 1.53246 7.3242 1.11294 3.90658 5.91485 3.59149 1.23529 6.7738 1.81625 0.956943 1.58312 8.30016 4.65594 1.48491 0.653766 3.82011 0.376789 7.02188 2.55856 9.12797 1.55224 0.93604 7.84366 8.69454 4.92621 2.21128 4.4072 0.805902 1.20059 3.40685 8.13495 0.809684 2.96743 3.40392 3.61003 0.809723 7.16961 0.922894 9.50946 5.29656 0.590038 5.60477 5.34164 0.274864 0.437018 3.68619 2.54469 6.77057 6.14659 1.85059 1.0532 3.42117 4.23753 0.598138 11.5606 2.46743 10.2935 1.46486 0.579342 1.46714 6.05599 1.00142 5.78014 0.188925 2.11962 6.06199 3.73266 1.27368 2.37846 4.4715 4.25754 7.89508 1.14639 6.21267 5.33788 0.738885 3.24279 2.63358 1.27246 7.9415 2.69854 3.81108 2.62503 1.08003 7.95839 1.43638 0.540797 2.64002 4.4859 1.82158 2.25386 3.58242 5.38783 1.42569 0.28779 6.09583 1.44255 5.36226 3.20001 0.520429 1.25198 7.9415 2.03445 5.95498 3.06785 7.16078 3.89384 3.59291 5.25264 0.558094 4.84813 0.432907 1.20137 7.65299 2.34859 7.57633 0.883963 1.58819 8.84235 4.26664 0.94001 6.73262 0.349623 1.65091 9.19469 0.574745 1.84088 2.09105 6.50038 1.1949 3.89384 8.74167 2.04772 0.821549 4.78876 1.09335 5.91485 2.06789 0.487005 3.77297 0.650369 1.23412 2.15826 2.95605 7.03156 4.09233 4.19948 2.34127 2.39773 2.06801 4.25292 1.59535 4.2189 4.49082 5.22951 2.02791 1.98438 1.42569 0.729907 0.34115 5.62614 5.35893 2.43527 5.55475 1.49569 7.37585 3.41665 1.24264 2.82601 0.942761 4.24561 9.07735 0.729907 5.38783 2.83799 1.45825 3.59291 4.78876 1.30277 7.32292 2.67844 0.297701 8.25019 2.80431 10.7256 5.79532 2.42723 1.69249 0.392258 1.3808 8.65149 3.9524 0.885434 5.31419 0.819211 4.26185 2.2928 5.03142 3.8068 3.58207 2.62503 2.72513 2.12296 5.08647 0.697668 5.03105 7.17732 0.371229 6.86881 2.00968 0.769009 1.67093 0.646207 7.30549 1.3808 8.27454 3.00857 0.742099 4.51505 1.07349 0.197355 6.55947 0.932676 4.48681 1.30501 4.91223 4.49082 1.05347 8.30144 4.42312 0.171867 1.49569 5.18174 2.64002 6.5781 0.516909 5.37765 1.22792 3.98079 4.48795 6.24883 0.908066 0.78365 6.29098 0.653339 4.40219 4.30816 6.21738 1.53246 1.09335 2.17963 4.38473 0.486253 7.68399 0.860447 1.32319 6.54352 3.82011 2.65537 1.04357 5.89004 3.65395 0.643161 9.12797 2.82627 6.09436 6.50766 4.66515 2.85545 7.89508 0.605357 0.729239 5.50423 2.61226 0.838177 3.33217 0.374237 4.17039 2.74444 7.86951 2.15744 5.3019 5.77973 1.39207 3.5836 0.616218 3.35082 2.35699 1.94078 1.77946 2.98982 5.43367 0.738885 1.02319 4.28741 0.739502 5.43364 0.564054 4.78353 3.43259 0.71073 2.83872 7.37924 7.6692 2.26097 7.79164 0.373881 1.5427 2.02258 3.20806 1.18314 3.77581 3.19178 0.715264 5.01294 4.88506 3.53103 5.92496 1.21201 2.48957 4.56095 0.692286 2.6251 2.615 2.30106 1.27453 2.82302 8.16179 2.36315 1.42318 6.16407 3.41661 1.16588 1.55224 0.643161 2.73471 2.95884 3.13588 0.410753 3.40363 7.44338 2.81284 3.61679 3.62565 1.32319 1.57469 8.63253 2.2437 2.8947 2.69854 1.25198 1.42998 0.724357 7.14566 2.43714 1.75594 1.5652 4.06185 7.11466 0.540797 3.64354 5.01294 1.95186 4.36814 6.5781 3.42708 4.8268 5.35893 2.58581 0.783306 1.23075 0.717204 6.27961 2.91664 1.29251 1.02319 5.33788 4.4072 6.2917 8.09352 1.13383 1.997 2.75489 6.04225 0.944416 1.82572 7.75278 3.77541 5.78528 0.848835 2.89964 2.01404 3.36186 0.75119 1.9638 6.98681 1.74796 0.571127 2.95884 3.14277 0.940879 0.792318 1.42746 3.65395 5.78996 2.63358 4.88479 1.08285 2.73471 0.874528 4.11342 2.25386 4.07929 1.85059 1.80163 3.80507 1.55686 2.51695 0.28779 1.98438 7.18818 6.32985 0.253691 8.56588 3.19178 0.748179 4.88325 1.76748 0.721054 1.33043 4.29067 6.48224 9.15268 0.951656 0.887287 7.30549 3.53033 8.13247 0.523495 6.50038 5.68728 5.60928 2.09105 8.24226 3.61679 0.661003 3.14829 5.68728 3.64758 5.97368 4.44296 0.494496 3.40123 0.0372856 10.797 1.47148 5.78315 5.59342 0.645401 4.38488 0.319161 2.81267 1.6364 4.2523 5.2276 7.57633 3.01913 0.905653 0.697244 1.17516 5.78014 5.88528 0.447276 6.51673 1.83037 1.08977 3.67914 4.90393 0.580495 4.75958 0.896438 2.39773 7.77218 0.922059 4.92621 1.50347 0.944416 7.7186 3.94187 0.510874 8.30144 1.75532 5.47787 0.48442 3.64758 0.391747 3.511 4.22727 5.17393 0.67426 0.931287 1.8633 1.96386 6.