<VTKFile type="UnstructuredGrid" version="0.1">
<UnstructuredGrid>
<Piece  NumberOfPoints="    2441" NumberOfCells="     408">
<Points>
<DataArray type="Float64" NumberOfComponents="3" format="ascii">
45.4364 -40.4413 0.0
45.6009 -39.84 0.0
40.4432 -35.923 0.0
38.9933 -36.3718 0.0
38.25 -37.5413 0.0
43.429 -42.0508 0.0
27.3895 42.1556 0.0
26.0796 42.1892 0.0
25.2109 39.6333 0.0
25.409 36.1049 0.0
26.0751 35.5632 0.0
30.4992 35.5826 0.0
30.7978 36.887 0.0
33.481 -24.8883 0.0
32.883 -20.7111 0.0
26.2114 -23.5395 0.0
25.2139 -25.3813 0.0
26.2136 -26.5296 0.0
32.7543 -25.0531 0.0
-2.33555 21.2803 0.0
-6.73583 17.8068 0.0
-6.16039 14.7548 0.0
-1.31232 17.6902 0.0
-0.0828281 18.8998 0.0
-35.6237 -45.0551 0.0
-33.3191 -48.2601 0.0
-30.6935 -46.7821 0.0
-30.7315 -43.7514 0.0
-31.4744 -41.9112 0.0
15.1945 -23.7846 0.0
12.9976 -22.3758 0.0
9.09786 -23.0124 0.0
5.64045 -24.2677 0.0
5.19997 -25.1604 0.0
7.86559 -27.2569 0.0
-43.1555 -9.80251 0.0
-40.4026 -12.966 0.0
-39.7104 -13.301 0.0
-38.3779 -12.9206 0.0
-39.023 -8.8734 0.0
-39.8922 -5.57383 0.0
16.0393 -23.3247 0.0
17.8974 -20.3365 0.0
15.55 -15.4757 0.0
11.4767 -16.1205 0.0
13.4949 -21.8307 0.0
15.6919 -23.2395 0.0
-39.5604 36.103 0.0
-36.9027 42.5765 0.0
-36.7707 43.8674 0.0
-37.1213 45.4596 0.0
-38.8201 45.261 0.0
-40.4242 44.2315 0.0
-41.3763 41.6893 0.0
20.4696 -45.5341 0.0
16.2659 -44.8316 0.0
15.4747 -45.3057 0.0
14.694 -48.8112 0.0
16.5722 -50.5021 0.0
16.9696 -50.5181 0.0
20.2825 -49.9518 0.0
3.10306 18.2741 0.0
2.95853 17.5915 0.0
7.30031 13.091 0.0
8.5326 12.9697 0.0
9.44108 13.0004 0.0
9.46232 17.4135 0.0
8.65214 17.8802 0.0
-48.7472 -19.2165 0.0
-53.6394 -16.3982 0.0
-55.2035 -18.1704 0.0
-55.1748 -21.6488 0.0
-53.8676 -24.9656 0.0
-53.7255 -25.1121 0.0
-51.8931 -22.9365 0.0
23.632 27.2104 0.0
23.8761 27.8406 0.0
20.3633 35.6221 0.0
18.0967 35.9784 0.0
17.3437 34.2986 0.0
17.2945 33.301 0.0
-13.2881 -11.6492 0.0
-14.2185 -14.6601 0.0
-12.9858 -15.4628 0.0
-8.53975 -17.0237 0.0
-7.41401 -16.0748 0.0
-7.01675 -15.362 0.0
-8.0458 -12.8961 0.0
43.4491 -3.57823 0.0
39.5646 -3.04855 0.0
38.1429 -9.12521 0.0
40.665 -8.76865 0.0
43.9339 -4.11679 0.0
-17.5116 -39.5665 0.0
-18.9119 -39.222 0.0
-23.1828 -40.7088 0.0
-22.7312 -44.3861 0.0
-19.4147 -46.8202 0.0
-19.1057 -46.8051 0.0
38.9155 -17.1675 0.0
36.5739 -17.4806 0.0
36.4747 -23.9812 0.0
39.9063 -21.0673 0.0
39.0996 -17.5513 0.0
-48.0605 21.628 0.0
-50.885 21.3639 0.0
-51.1788 20.8834 0.0
-52.346 16.3024 0.0
-49.1609 13.9521 0.0
-47.242 14.8913 0.0
47.3566 -7.65136 0.0
46.6674 -5.61274 0.0
45.2386 -4.37621 0.0
44.2412 -4.35514 0.0
40.9722 -9.007 0.0
40.6802 -11.3972 0.0
40.8612 -13.0004 0.0
39.9376 -11.7458 0.0
40.2297 -9.35566 0.0
37.7077 -9.71222 0.0
33.3479 -10.914 0.0
33.0172 -12.1557 0.0
33.3182 -14.6776 0.0
-39.8932 -3.21928 0.0
-37.6543 -3.03515 0.0
-37.8487 3.14163 0.0
-39.8951 4.82261 0.0
-40.4909 4.17483 0.0
-40.6643 1.58884 0.0
-40.7926 -2.46952 0.0
-22.5368 25.5021 0.0
-24.8527 22.7768 0.0
-25.6086 21.3833 0.0
-24.9519 18.352 0.0
-22.6557 18.1154 0.0
-21.2694 20.9222 0.0
33.1802 33.3475 0.0
36.1029 36.1464 0.0
34.33 41.8382 0.0
31.4063 36.7615 0.0
31.1078 35.457 0.0
46.2092 23.3433 0.0
48.1417 23.9817 0.0
48.8329 28.9675 0.0
48.6193 29.7915 0.0
47.8953 31.0218 0.0
44.8279 31.92 0.0
43.885 31.1409 0.0
43.4236 28.9926 0.0
-52.4416 8.43117 0.0
-52.5404 9.19532 0.0
-54.2045 13.4768 0.0
-56.0904 11.9801 0.0
-56.99 10.5243 0.0
-55.1029 6.16589 0.0
-46.6524 21.9347 0.0
-47.6321 21.5996 0.0
-46.8135 14.863 0.0
-43.9731 14.6771 0.0
-41.6749 15.1188 0.0
-53.0137 30.9536 0.0
-53.0922 30.861 0.0
-48.1674 29.626 0.0
-44.9084 33.0914 0.0
-45.3015 34.257 0.0
-48.5155 33.6007 0.0
-59.3305 17.5733 0.0
-61.1864 15.5803 0.0
-56.3601 12.5153 0.0
-54.4742 14.012 0.0
-53.8228 15.5725 0.0
-44.031 14.1267 0.0
-46.8714 14.3126 0.0
-48.7904 13.3733 0.0
-47.8073 10.4126 0.0
-43.3898 9.41857 0.0
-28.1402 -41.7419 0.0
-30.296 -43.7214 0.0
-30.2581 -46.7521 0.0
-28.7644 -47.5144 0.0
-28.5766 -47.5407 0.0
-25.6217 -45.7892 0.0
-53.0212 0.880851 0.0
-54.3095 2.54731 0.0
-60.3885 4.87761 0.0
-60.9718 1.17072 0.0
-57.7377 -2.24717 0.0
6.85694 45.1726 0.0
3.87726 47.0432 0.0
1.9307 46.0019 0.0
-3.33075 39.5192 0.0
-2.04435 38.9563 0.0
9.58233 26.9018 0.0
9.51098 25.0325 0.0
13.1623 21.7008 0.0
13.4916 22.0062 0.0
13.8213 22.3868 0.0
14.0811 25.7797 0.0
12.6793 27.787 0.0
10.1547 27.9516 0.0
7.81056 44.6541 0.0
6.92054 44.9195 0.0
-1.98075 38.7032 0.0
-0.363945 37.3142 0.0
-0.197923 37.1885 0.0
-40.6923 -40.2377 0.0
-40.8082 -40.7796 0.0
-38.9757 -42.858 0.0
-36.4226 -44.2117 0.0
-34.8829 -38.5945 0.0
-40.9145 7.9849 0.0
-43.3449 9.00792 0.0
-47.7624 10.0019 0.0
-48.0126 8.60336 0.0
-47.6792 5.58111 0.0
-5.15517 39.514 0.0
-3.80241 39.5226 0.0
1.45904 46.0054 0.0
-5.31555 45.6082 0.0
-29.9255 -17.153 0.0
-32.6086 -14.528 0.0
-35.5079 -13.4053 0.0
-36.5293 -13.772 0.0
-35.8318 -15.4604 0.0
-33.6288 -19.4588 0.0
-26.0599 30.7034 0.0
-26.809 31.0363 0.0
-29.6032 30.5498 0.0
-29.4962 25.8181 0.0
-26.5246 22.1855 0.0
-26.0072 21.9524 0.0
-25.2513 23.3459 0.0
11.1258 38.1149 0.0
13.3462 38.6395 0.0
12.7446 44.4258 0.0
10.5879 44.075 0.0
9.60649 42.4331 0.0
-24.4736 -53.1916 0.0
-23.4536 -53.115 0.0
-19.6315 -47.4459 0.0
-22.948 -45.0118 0.0
-23.4365 -45.3445 0.0
45.8148 -39.582 0.0
45.9617 -33.924 0.0
43.3693 -34.4317 0.0
40.6571 -35.665 0.0
30.9222 13.6889 0.0
34.285 5.15217 0.0
36.0186 9.79055 0.0
35.9732 9.89861 0.0
-20.234 -15.8585 0.0
-24.9735 -13.0509 0.0
-25.7443 -18.3743 0.0
-24.3746 -19.0155 0.0
9.18044 42.1877 0.0
2.20024 37.5464 0.0
9.50602 36.8915 0.0
10.6998 37.8694 0.0
25.7934 2.54214 0.0
25.1685 2.91449 0.0
19.4851 -1.59471 0.0
19.3363 -4.40036 0.0
20.6554 -5.24556 0.0
23.9288 -3.28735 0.0
11.4683 -13.6775 0.0
15.6182 -10.4892 0.0
12.6541 -9.23214 0.0
10.0618 -11.128 0.0
9.2598 -11.7759 0.0
9.06575 -14.5223 0.0
10.0906 -14.7263 0.0
25.7286 49.5968 0.0
25.7717 48.7276 0.0
31.1616 43.8153 0.0
33.592 44.1296 0.0
33.3493 46.3364 0.0
29.281 48.3476 0.0
-7.42384 -41.2627 0.0
-8.15711 -41.7186 0.0
-6.38763 -48.4539 0.0
-4.40955 -47.2144 0.0
-1.73455 -44.1796 0.0
25.1246 -18.1681 0.0
22.7014 -16.4097 0.0
18.4946 -20.4667 0.0
16.6365 -23.4548 0.0
17.0249 -24.015 0.0
19.123 -24.0628 0.0
34.221 15.9149 0.0
36.0314 11.2722 0.0
41.0808 17.1728 0.0
-33.6436 6.13783 0.0
-33.4857 6.60145 0.0
-33.5681 8.85596 0.0
-36.2473 9.97821 0.0
-38.5295 10.6143 0.0
-39.6552 7.87974 0.0
-39.5718 6.89034 0.0
10.0397 -60.0943 0.0
7.61701 -56.6014 0.0
1.76635 -58.5263 0.0
4.48793 -60.4697 0.0
8.66039 -60.9301 0.0
9.11014 -60.7849 0.0
-18.985 51.7933 0.0
-13.1875 56.1234 0.0
-15.255 59.2734 0.0
-15.6754 59.1904 0.0
-19.2871 57.2797 0.0
-20.3092 53.2786 0.0
-33.3394 32.3169 0.0
-35.7641 30.4473 0.0
-32.5857 25.0459 0.0
-29.9956 26.0222 0.0
-30.1025 30.7539 0.0
-31.4254 32.2786 0.0
-52.9043 16.3833 0.0
-51.7371 20.9643 0.0
-58.5886 20.0344 0.0
-59.1109 17.921 0.0
-53.6032 15.9202 0.0
23.2828 24.2957 0.0
21.3016 20.6738 0.0
28.1336 18.9898 0.0
25.5877 23.9085 0.0
24.2533 24.716 0.0
38.2344 1.73961 0.0
38.9021 0.57736 0.0
46.4592 5.88868 0.0
47.5462 7.72389 0.0
45.2028 9.83393 0.0
40.4685 5.21968 0.0
13.017 -3.71882 0.0
10.5894 -2.53066 0.0
7.69066 -7.87115 0.0
8.83047 -10.7761 0.0
9.10067 -11.2565 0.0
9.90264 -10.6086 0.0
24.4145 -3.13483 0.0
26.6672 -4.0216 0.0
30.592 2.57172 0.0
29.7344 3.16724 0.0
27.7835 3.25125 0.0
26.2792 2.69466 0.0
40.1809 -13.6841 0.0
40 -12.0808 0.0
33.3805 -15.0126 0.0
33.2659 -16.2933 0.0
34.2559 -17.2729 0.0
36.4822 -16.9725 0.0
38.8238 -16.6595 0.0
39.6837 -15.5737 0.0
-36.3222 -44.8454 0.0
-38.8754 -43.4916 0.0
-39.0659 -48.0627 0.0
-34.6309 -51.6317 0.0
-33.7086 -48.4897 0.0
-36.0133 -45.2846 0.0
-6.78368 -16.7209 0.0
-7.90943 -17.6697 0.0
-7.80794 -18.6235 0.0
-2.84165 -24.6933 0.0
-1.91804 -25.2135 0.0
-1.14531 -21.2818 0.0
-5.81823 24.4087 0.0
-8.83961 24.2484 0.0
-13.5002 15.9468 0.0
-12.5657 14.5251 0.0
-10.5108 16.2591 0.0
43.7282 13.9259 0.0
39.6249 10.7349 0.0
40.3877 5.68756 0.0
45.1221 10.3018 0.0
44.382 12.788 0.0
-37.292 -3.15691 0.0
-33.6986 -3.43404 0.0
-33.1278 -2.05962 0.0
-34.431 0.972979 0.0
-37.4864 3.01987 0.0
-1.20852 -3.74504 0.0
-1.08358 -3.6731 0.0
-5.04229 4.67524 0.0
-6.13421 4.50566 0.0
-6.78313 0.479195 0.0
26.5847 13.7692 0.0
26.8321 12.0498 0.0
29.7213 10.5631 0.0
29.6142 16.078 0.0
29.3951 17.568 0.0
28.8904 17.694 0.0
26.3291 15.3726 0.0
49.3994 16.8598 0.0
50.534 16.9384 0.0
50.437 21.9804 0.0
48.3531 23.2173 0.0
46.4205 22.5788 0.0
45.0797 21.3628 0.0
-24.9612 -53.2077 0.0
-24.7879 -53.1931 0.0
-23.7507 -45.346 0.0
-25.35 -46.1828 0.0
-28.305 -47.9344 0.0
-22.3689 -27.715 0.0
-21.5482 -29.6581 0.0
-20.3327 -29.7204 0.0
-18.238 -26.9257 0.0
-18.4372 -23.0257 0.0
-18.4603 -22.4981 0.0
-18.8621 -21.9352 0.0
-21.507 -21.2824 0.0
-25.461 42.218 0.0
-25.631 39.7554 0.0
-24.4261 38.8748 0.0
-21.0815 38.2621 0.0
-19.5349 39.7066 0.0
-20.069 43.1202 0.0
47.1978 -5.04963 0.0
48.3493 -4.58971 0.0
52.0762 -3.06251 0.0
50.2724 0.596672 0.0
45.769 -3.8131 0.0
-46.4746 -14.5269 0.0
-53.0717 -14.2529 0.0
-53.3087 -15.9904 0.0
-48.4165 -18.8087 0.0
-46.6752 -18.8591 0.0
-8.10823 -54.0038 0.0
-5.15589 -59.1663 0.0
-1.92382 -56.5401 0.0
-1.92003 -56.1827 0.0
-3.20918 -54.6469 0.0
-36.4085 42.4457 0.0
-35.1285 38.3668 0.0
-34.5916 36.9954 0.0
-31.2279 39.8387 0.0
-32.0856 41.1234 0.0
-36.2764 43.7367 0.0
0.508296 61.3951 0.0
-0.29224 61.339 0.0
0.832906 56.4289 0.0
4.87958 55.1334 0.0
5.40977 59.2784 0.0
45.0473 12.8484 0.0
45.7873 10.3622 0.0
48.1307 8.2522 0.0
49.5699 8.44391 0.0
52.8302 10.2867 0.0
52.4318 11.8143 0.0
55.3646 8.96496 0.0
53.1665 9.92326 0.0
49.9062 8.08051 0.0
50.369 5.63332 0.0
51.0304 2.76375 0.0
21.2925 -11.2462 0.0
21.0941 -10.837 0.0
11.9104 -13.8403 0.0
10.5328 -14.8891 0.0
11.6153 -15.5534 0.0
15.6886 -14.9087 0.0
20.8652 -12.7056 0.0
10.3751 -49.3299 0.0
14.0748 -48.6353 0.0
14.8556 -45.1298 0.0
10.3453 -42.7675 0.0
9.14706 -42.399 0.0
8.1233 -42.8065 0.0
18.2899 -37.7607 0.0
20.8235 -35.3624 0.0
11.6105 -33.1879 0.0
11.1192 -35.9267 0.0
11.3157 -36.3424 0.0
17.5116 -37.7619 0.0
[...]
<CellData Scalars="cell variable 4" Vectors="cell vector">
<DataArray type="Float64" NumberOfComponents="3" Name="cell vector" format="ascii">
0 0 0
0 0 0
0 0 0
0 0 0
0 0 0
0 0 0
0 0 0
0 0 0
0 0 0
0 0 0
0 0 0
0 0 0
0 0 0
0 0 0
0 0 0
0 0 0
0 0 0
0 0 0
0 0 0
0 0 0
0 0 0
0 0 0
0 0 0
0 0 0
0 0 0
0 0 0
0 0 0
0 0 0
0 0 0
0 0 0
0 0 0
0 0 0
0 0 0
0 0 0
0 0 0
0 0 0
0 0 0
0 0 0
0 0 0
0 0 0
0 0 0
0 0 0
0 0 0
0 0 0
0 0 0
0 0 0
0 0 0
0 0 0
0 0 0
0 0 0
0 0 0
0 0 0
0 0 0
0 0 0
0 0 0
0 0 0
0 0 0
0 0 0
0 0 0
0 0 0
0 0 0
0 0 0
0 0 0
0 0 0
0 0 0
0 0 0
0 0 0
0 0 0
0 0 0
0 0 0
0 0 0
0 0 0
0 0 0
0 0 0
0 0 0
0 0 0
0 0 0
0 0 0
0 0 0
0 0 0
0 0 0
0 0 0
0 0 0
0 0 0
0 0 0
0 0 0
0 0 0
0 0 0
0 0 0
0 0 0
0 0 0
0 0 0
0 0 0
0 0 0
0 0 0
0 0 0
0 0 0
0 0 0
0 0 0
0 0 0
0 0 0
0 0 0
0 0 0
0 0 0
0 0 0
0 0 0
0 0 0
0 0 0
0 0 0
0 0 0
0 0 0
0 0 0
0 0 0
0 0 0
0 0 0
0 0 0
0 0 0
0 0 0
0 0 0
0 0 0
0 0 0
0 0 0
0 0 0
0 0 0
0 0 0
0 0 0
0 0 0
0 0 0
0 0 0
0 0 0
0 0 0
0 0 0
0 0 0
0 0 0
0 0 0
0 0 0
0 0 0
0 0 0
0 0 0
0 0 0
0 0 0
0 0 0
0 0 0
0 0 0
0 0 0
0 0 0
0 0 0
0 0 0
0 0 0
0 0 0
0 0 0
0 0 0
0 0 0
0 0 0
0 0 0
0 0 0
0 0 0
0 0 0
0 0 0
0 0 0
0 0 0
0 0 0
0 0 0
0 0 0
0 0 0
0 0 0
0 0 0
0 0 0
0 0 0
0 0 0
0 0 0
0 0 0
0 0 0
0 0 0
0 0 0
0 0 0
0 0 0
0 0 0
0 0 0
0 0 0
0 0 0
0 0 0
0 0 0
0 0 0
0 0 0
0 0 0
0 0 0
0 0 0
0 0 0
0 0 0
0 0 0
0 0 0
0 0 0
0 0 0
0 0 0
0 0 0
0 0 0
0 0 0
0 0 0
0 0 0
0 0 0
0 0 0
0 0 0
0 0 0
0 0 0
0 0 0
0 0 0
0 0 0
0 0 0
0 0 0
0 0 0
0 0 0
0 0 0
0 0 0
0 0 0
0 0 0
0 0 0
0 0 0
0 0 0
0 0 0
0 0 0
0 0 0
0 0 0
0 0 0
0 0 0
0 0 0
0 0 0
0 0 0
0 0 0
0 0 0
0 0 0
0 0 0
0 0 0
0 0 0
0 0 0
0 0 0
0 0 0
0 0 0
0 0 0
0 0 0
0 0 0
0 0 0
0 0 0
0 0 0
0 0 0
0 0 0
0 0 0
0 0 0
0 0 0
0 0 0
0 0 0
0 0 0
0 0 0
0 0 0
0 0 0
0 0 0
0 0 0
0 0 0
0 0 0
0 0 0
0 0 0
0 0 0
0 0 0
0 0 0
0 0 0
0 0 0
0 0 0
0 0 0
0 0 0
0 0 0
0 0 0
0 0 0
0 0 0
0 0 0
0 0 0
0 0 0
0 0 0
0 0 0
0 0 0
0 0 0
0 0 0
0 0 0
0 0 0
0 0 0
0 0 0
0 0 0
0 0 0
0 0 0
0 0 0
0 0 0
0 0 0
0 0 0
0 0 0
0 0 0
0 0 0
0 0 0
0 0 0
0 0 0
0 0 0
0 0 0
0 0 0
0 0 0
0 0 0
0 0 0
0 0 0
0 0 0
0 0 0
0 0 0
0 0 0
0 0 0
0 0 0
0 0 0
0 0 0
0 0 0
0 0 0
0 0 0
0 0 0
0 0 0
0 0 0
0 0 0
0 0 0
0 0 0
0 0 0
0 0 0
0 0 0
0 0 0
0 0 0
0 0 0
0 0 0
0 0 0
0 0 0
0 0 0
0 0 0
0 0 0
0 0 0
0 0 0
0 0 0
0 0 0
0 0 0
0 0 0
0 0 0
0 0 0
0 0 0
0 0 0
0 0 0
0 0 0
0 0 0
0 0 0
0 0 0
0 0 0
0 0 0
0 0 0
0 0 0
0 0 0
0 0 0
0 0 0
0 0 0
0 0 0
0 0 0
0 0 0
0 0 0
0 0 0
0 0 0
0 0 0
0 0 0
0 0 0
0 0 0
0 0 0
0 0 0
0 0 0
0 0 0
0 0 0
0 0 0
0 0 0
0 0 0
0 0 0
0 0 0
0 0 0
0 0 0
0 0 0
0 0 0
0 0 0
0 0 0
0 0 0
0 0 0
0 0 0
0 0 0
0 0 0
0 0 0
0 0 0
0 0 0
0 0 0
0 0 0
0 0 0
0 0 0
0 0 0
0 0 0
0 0 0
0 0 0
0 0 0
0 0 0
0 0 0
0 0 0
0 0 0
0 0 0
0 0 0
0 0 0
0 0 0
</DataArray>
<DataArray type="Float64" Name="cell vector length" format="ascii">
0 0 0 0 0 0 0 0 0 0 0 0 0 0 0 0 0 0 0 0 0 0 0 0 0 0 0 0 0 0 0 0 0 0 0 0 0 0 0 0 0 0 0 0 0 0 0 0 0 0 0 0 0 0 0 0 0 0 0 0 0 0 0 0 0 0 0 0 0 0 0 0 0 0 0 0 0 0 0 0 0 0 0 0 0 0 0 0 0 0 0 0 0 0 0 0 0 0 0 0 0 0 0 0 0 0 0 0 0 0 0 0 0 0 0 0 0 0 0 0 0 0 0 0 0 0 0 0 0 0 0 0 0 0 0 0 0 0 0 0 0 0 0 0 0 0 0 0 0 0 0 0 0 0 0 0 0 0 0 0 0 0 0 0 0 0 0 0 0 0 0 0 0 0 0 0 0 0 0 0 0 0 0 0 0 0 0 0 0 0 0 0 0 0 0 0 0 0 0 0 0 0 0 0 0 0 0 0 0 0 0 0 0 0 0 0 0 0 0 0 0 0 0 0 0 0 0 0 0 0 0 0 0 0 0 0 0 0 0 0 0 0 0 0 0 0 0 0 0 0 0 0 0 0 0 0 0 0 0 0 0 0 0 0 0 0 0 0 0 0 0 0 0 0 0 0 0 0 0 0 0 0 0 0 0 0 0 0 0 0 0 0 0 0 0 0 0 0 0 0 0 0 0 0 0 0 0 0 0 0 0 0 0 0 0 0 0 0 0 0 0 0 0 0 0 0 0 0 0 0 0 0 0 0 0 0 0 0 0 0 0 0 0 0 0 0 0 0 0 0 0 0 0 0 0 0 0 0 0 0 0 0 0 0 0 0 0 0 0 0 0 0 0 0 0 0 0 0 0 0 0 0 0 0 0 0 0 0 0 0 0 0 0 0 0 0 0 0 0 0 0 0 0 0 0 0 0 0 
</DataArray>
<DataArray type="Float64" Name="cell variable 4" format="ascii">
0.316217 0.434405 0.657465 1.07467 0.437452 0.94865 0.542818 0.94865 0.371127 0.399988 1.14226 0.479217 0.790107 1.04461 0.573608 0.66381 0.573608 0.495708 0.573608 0.573608 0.542818 0.99432 0.511974 0.511974 0.332003 0.495708 0.393381 0.179448 0.495708 0.437452 0.332003 0.626025 0.980966 0.626025 0.437452 0.495708 0.36504 0.631062 0.673042 0.626025 0.393247 0.316217 0.848855 0.919422 0.626025 1.10185 1.11547 0.434405 0.514292 0.657465 0.848855 0.8063 0.442722 0.33356 0.673042 0.179448 1.06245 0.736473 1.11547 0.912892 0.573608 0.136507 1.04461 1.07467 0.736473 0.542818 1.12037 0.848855 0.50937 0.393247 0.631062 0.503886 0.45141 0.542818 0.514292 0.371127 0.36504 0.50937 0.45141 1.11547 0.442722 0.708918 0.495708 0.790107 0.45141 0.399988 1.04461 1.10185 1.14226 0.371127 0.393381 0.708918 0.36504 0.313432 0.980966 0.980966 0.763876 0.919422 0.503886 0.542818 0.503886 1.04461 0.919422 0.313432 0.631062 0.919422 0.479217 0.542818 0.434405 0.912892 0.542818 0.790107 0.763876 0.673042 0.161465 0.334198 0.542818 0.657465 1.11547 0.789941 0.393247 0.511974 0.399988 0.343308 0.393381 0.673042 0.32239 0.573608 0.99432 0.514292 0.514292 0.763876 0.789941 0.393381 0.66381 1.06245 0.50937 0.789941 1.04461 0.789941 0.790107 1.00681 1.12037 0.33356 0.542818 0.980966 0.66381 0.99432 0.32239 0.848855 0.511974 0.980966 0.313432 0.919422 1.00681 0.332003 0.912892 0.790107 0.542818 1.06245 1.07467 0.94865 0.848855 1.06245 0.511974 0.763876 0.657465 0.434405 1.11547 0.36504 0.27464 0.184973 0.573608 0.371127 0.848855 0.313432 1.00681 1.00681 0.343308 0.371127 1.12037 1.00681 1.00681 0.657465 0.442722 0.437452 0.657465 1.11547 0.313432 0.848855 0.542818 0.912892 1.07467 0.399988 0.50937 0.789941 0.94865 0.763876 0.8063 0.50937 0.790107 0.393247 0.161465 0.657465 0.631062 0.50937 0.45141 0.708918 0.763876 0.442722 0.514292 0.673042 0.631062 0.495708 0.316217 0.153908 0.316217 0.673042 0.573608 1.07467 0.252014 0.316217 0.434405 0.45141 0.343308 0.8063 0.511974 0.332003 0.437452 0.763876 0.316217 0.90618 0.848855 1.10185 1.04461 0.919422 1.10185 0.479217 0.45141 0.631062 0.99432 0.23011 0.343308 1.11547 0.32239 0.399988 0.90618 0.736473 0.36504 1.07467 1.10185 0.573608 0.626025 0.36504 0.316217 0.763876 1.10185 0.45141 0.442722 0.437452 1.11547 0.514292 0.479217 0.45141 0.36504 0.631062 1.14226 0.912892 0.437452 0.919422 1.11547 0.789941 0.631062 0.542818 0.503886 0.631062 0.36504 0.631062 0.94865 0.371127 0.187543 0.736473 0.8063 0.912892 0.249242 0.631062 0.573608 0.626025 0.50937 1.00681 0.343308 1.14226 0.94865 0.32239 0.332003 0.8063 0.66381 1.12037 0.66381 0.673042 0.912892 0.790107 1.12037 0.334198 0.187543 0.848855 0.33356 0.313432 0.434405 0.90618 0.631062 0.542818 1.12037 1.07467 0.912892 0.399988 1.10185 1.11547 0.980966 0.8063 0.631062 0.32239 0.393381 0.399988 0.332003 0.316217 0.542818 1.14226 0.573608 0.33356 1.04461 0.66381 0.708918 0.399988 0.626025 0.479217 0.90618 0.495708 0.36504 0.514292 0.542818 0.249242 1.00681 0.393381 0.99432 1.06245 0.8063 0.848855 0.99432 0.434405 0.657465 0.573608 0.919422 0.442722 0.399988 0.252014 0.514292 0.8063 0.495708 1.14226 1.12037 0.343308 0.313432 0.919422 0.919422 0.763876 0.848855 0.313432 0.789941 1.11547 0.980966 0.442722 0.434405 1.10185 0.90618 0.790107 1.12037 0.393247 0.673042 0.626025 0.66381 0.511974 1.06245 0.514292 0.542818 0.343308 0.626025 0.90618 1.14226 0.631062 0.626025 1.04461 0.179448 0.371127 0.334198 0.919422 0.66381 0.511974 1.06245 0.252014 1.07467 0.252014 0.789941 0.442722 0.673042 0.371127 0.657465 0.708918 
</DataArray>
<DataArray type="Float64" Name="cell variable 5" format="ascii">
0.0909148 0.0503251 0.0226112 0.00858434 0.0496613 0.0109898 0.0328244 0.0109898 0.0676886 0.0588268 0.00760594 0.0417277 0.0157662 0.00908091 0.0294962 0.0221905 0.0294962 0.0391044 0.0294962 0.0294962 0.0328244 0.0100133 0.0367488 0.0367488 0.0831765 0.0391044 0.0606986 0.236958 0.0391044 0.0496613 0.0831765 0.0248813 0.0102849 0.0248813 0.0496613 0.0391044 0.0698059 0.0244954 0.021599 0.0248813 0.0607373 0.0909148 0.0136882 0.0116913 0.0248813 0.00816951 0.00797274 0.0503251 0.0364304 0.0226112 0.0136882 0.0151488 0.0485429 0.0824658 0.021599 0.236958 0.00878122 0.0181031 0.00797274 0.0118572 0.0294962 0.349234 0.00908091 0.00858434 0.0181031 0.0328244 0.00790366 0.0136882 0.0371116 0.0607373 0.0244954 0.037893 0.0467791 0.0328244 0.0364304 0.0676886 0.0698059 0.0371116 0.0467791 0.00797274 0.0485429 0.0195097 0.0391044 0.0157662 0.0467791 0.0588268 0.00908091 0.00816951 0.00760594 0.0676886 0.0606986 0.0195097 0.0698059 0.0923878 0.0102849 0.0102849 0.016849 0.0116913 0.037893 0.0328244 0.037893 0.00908091 0.0116913 0.0923878 0.0244954 0.0116913 0.0417277 0.0328244 0.0503251 0.0118572 0.0328244 0.0157662 0.016849 0.021599 0.277231 0.082177 0.0328244 0.0226112 0.00797274 0.0157727 0.0607373 0.0367488 0.0588268 0.0782104 0.0606986 0.021599 0.0877689 0.0294962 0.0100133 0.0364304 0.0364304 0.016849 0.0157727 0.0606986 0.0221905 0.00878122 0.0371116 0.0157727 0.00908091 0.0157727 0.0157662 0.00976872 0.00790366 0.0824658 0.0328244 0.0102849 0.0221905 0.0100133 0.0877689 0.0136882 0.0367488 0.0102849 0.0923878 0.0116913 0.00976872 0.0831765 0.0118572 0.0157662 0.0328244 0.00878122 0.00858434 0.0109898 0.0136882 0.00878122 0.0367488 0.016849 0.0226112 0.0503251 0.00797274 0.0698059 0.117059 0.226167 0.0294962 0.0676886 0.0136882 0.0923878 0.00976872 0.00976872 0.0782104 0.0676886 0.00790366 0.00976872 0.00976872 0.0226112 0.0485429 0.0496613 0.0226112 0.00797274 0.0923878 0.0136882 0.0328244 0.0118572 0.00858434 0.0588268 0.0371116 0.0157727 0.0109898 0.016849 0.0151488 0.0371116 0.0157662 0.0607373 0.277231 0.0226112 0.0244954 0.0371116 0.0467791 0.0195097 0.016849 0.0485429 0.0364304 0.021599 0.0244954 0.0391044 0.0909148 0.296844 0.0909148 0.021599 0.0294962 0.00858434 0.136034 0.0909148 0.0503251 0.0467791 0.0782104 0.0151488 0.0367488 0.0831765 0.0496613 0.016849 0.0909148 0.0120314 0.0136882 0.00816951 0.00908091 0.0116913 0.00816951 0.0417277 0.0467791 0.0244954 0.0100133 0.158855 0.0782104 0.00797274 0.0877689 0.0588268 0.0120314 0.0181031 0.0698059 0.00858434 0.00816951 0.0294962 0.0248813 0.0698059 0.0909148 0.016849 0.00816951 0.0467791 0.0485429 0.0496613 0.00797274 0.0364304 0.0417277 0.0467791 0.0698059 0.0244954 0.00760594 0.0118572 0.0496613 0.0116913 0.00797274 0.0157727 0.0244954 0.0328244 0.037893 0.0244954 0.0698059 0.0244954 0.0109898 0.0676886 0.221374 0.0181031 0.0151488 0.0118572 0.138655 0.0244954 0.0294962 0.0248813 0.0371116 0.00976872 0.0782104 0.00760594 0.0109898 0.0877689 0.0831765 0.0151488 0.0221905 0.00790366 0.0221905 0.021599 0.0118572 0.0157662 0.00790366 0.082177 0.221374 0.0136882 0.0824658 0.0923878 0.0503251 0.0120314 0.0244954 0.0328244 0.00790366 0.00858434 0.0118572 0.0588268 0.00816951 0.00797274 0.0102849 0.0151488 0.0244954 0.0877689 0.0606986 0.0588268 0.0831765 0.0909148 0.0328244 0.00760594 0.0294962 0.0824658 0.00908091 0.0221905 0.0195097 0.0588268 0.0248813 0.0417277 0.0120314 0.0391044 0.0698059 0.0364304 0.0328244 0.138655 0.00976872 0.0606986 0.0100133 0.00878122 0.0151488 0.0136882 0.0100133 0.0503251 0.0226112 0.0294962 0.0116913 0.0485429 0.0588268 0.136034 0.0364304 0.0151488 0.0391044 0.00760594 0.00790366 0.0782104 0.0923878 0.0116913 0.0116913 0.016849 0.0136882 0.0923878 0.0157727 0.00797274 0.0102849 0.0485429 0.0503251 0.00816951 0.0120314 0.0157662 0.00790366 0.0607373 0.021599 0.0248813 0.0221905 0.0367488 0.00878122 0.0364304 0.0328244 0.0782104 0.0248813 0.0120314 0.00760594 0.0244954 0.0248813 0.00908091 0.236958 0.0676886 0.082177 0.0116913 0.0221905 0.0367488 0.00878122 0.136034 0.00858434 0.136034 0.0157727 0.0485429 0.021599 0.0676886 0.0226112 0.0195097 
</DataArray>
<DataArray type="Float64" Name="cell variable 6" format="ascii">
0.0038835 0.000857904 8.84138e-05 5.3719e-06 0.000885689 1.10661e-05 0.000251962 1.10661e-05 0.0019189 0.00127682 3.76475e-06 0.00051123 3.15261e-05 6.33494e-06 0.000187165 8.3838e-05 0.000187165 0.000410215 0.000187165 0.000187165 0.000251962 8.43313e-06 0.00035504 0.00035504 0.00364689 0.000410215 0.00151522 0.235078 0.000410215 0.000885689 0.00364689 0.000115922 9.11938e-06 0.000115922 0.000885689 0.000410215 0.0019794 0.000110922 7.76673e-05 0.000115922 0.00202135 0.0038835 2.09522e-05 1.32528e-05 0.000115922 4.64493e-06 4.32387e-06 0.000857904 0.000349016 8.84138e-05 2.09522e-05 2.80904e-05 0.000858618 0.00403961 7.76673e-05 0.235078 5.74138e-06 4.69278e-05 4.32387e-06 1.38076e-05 0.000187165 0.432355 6.33494e-06 5.3719e-06 4.69278e-05 0.000251962 4.21468e-06 2.09522e-05 0.000394946 0.00202135 0.000110922 0.000380196 0.000696942 0.000251962 0.000349016 0.0019189 0.0019794 0.000394946 0.000696942 4.32387e-06 0.000858618 5.81379e-05 0.000410215 3.15261e-05 0.000696942 0.00127682 6.33494e-06 4.64493e-06 3.76475e-06 0.0019189 0.00151522 5.81379e-05 0.0019794 0.00439847 9.11938e-06 9.11938e-06 3.81646e-05 1.32528e-05 0.000380196 0.000251962 0.000380196 6.33494e-06 1.32528e-05 0.00439847 0.000110922 1.32528e-05 0.00051123 0.000251962 0.000857904 1.38076e-05 0.000251962 3.15261e-05 3.81646e-05 7.76673e-05 0.298329 0.00576492 0.000251962 8.84138e-05 4.32387e-06 3.156e-05 0.00202135 0.00035504 0.00127682 0.00310284 0.00151522 7.76673e-05 0.00628005 0.000187165 8.43313e-06 0.000349016 0.000349016 3.81646e-05 3.156e-05 0.00151522 8.3838e-05 5.74138e-06 0.000394946 3.156e-05 6.33494e-06 3.156e-05 3.15261e-05 7.8448e-06 4.21468e-06 0.00403961 0.000251962 9.11938e-06 8.3838e-05 8.43313e-06 0.00628005 2.09522e-05 0.00035504 9.11938e-06 0.00439847 1.32528e-05 7.8448e-06 0.00364689 1.38076e-05 3.15261e-05 0.000251962 5.74138e-06 5.3719e-06 1.10661e-05 2.09522e-05 5.74138e-06 0.00035504 3.81646e-05 8.84138e-05 0.000857904 4.32387e-06 0.0019794 0.02163 0.208208 0.000187165 0.0019189 2.09522e-05 0.00439847 7.8448e-06 7.8448e-06 0.00310284 0.0019189 4.21468e-06 7.8448e-06 7.8448e-06 8.84138e-05 0.000858618 0.000885689 8.84138e-05 4.32387e-06 0.00439847 2.09522e-05 0.000251962 1.38076e-05 5.3719e-06 0.00127682 0.000394946 3.156e-05 1.10661e-05 3.81646e-05 2.80904e-05 0.000394946 3.15261e-05 0.00202135 0.298329 8.84138e-05 0.000110922 0.000394946 0.000696942 5.81379e-05 3.81646e-05 0.000858618 0.000349016 7.76673e-05 0.000110922 0.000410215 0.0038835 0.3398 0.0038835 7.76673e-05 0.000187165 5.3719e-06 0.0441278 0.0038835 0.000857904 0.000696942 0.00310284 2.80904e-05 0.00035504 0.00364689 0.000885689 3.81646e-05 0.0038835 1.4406e-05 2.09522e-05 4.64493e-06 6.33494e-06 1.32528e-05 4.64493e-06 0.00051123 0.000696942 0.000110922 8.43313e-06 0.0671729 0.00310284 4.32387e-06 0.00628005 0.00127682 1.4406e-05 4.69278e-05 0.0019794 5.3719e-06 4.64493e-06 0.000187165 0.000115922 0.0019794 0.0038835 3.81646e-05 4.64493e-06 0.000696942 0.000858618 0.000885689 4.32387e-06 0.000349016 0.00051123 0.000696942 0.0019794 0.000110922 3.76475e-06 1.38076e-05 0.000885689 1.32528e-05 4.32387e-06 3.156e-05 0.000110922 0.000251962 0.000380196 0.000110922 0.0019794 0.000110922 1.10661e-05 0.0019189 0.185318 4.69278e-05 2.80904e-05 1.38076e-05 0.0566856 0.000110922 0.000187165 0.000115922 0.000394946 7.8448e-06 0.00310284 3.76475e-06 1.10661e-05 0.00628005 0.00364689 2.80904e-05 8.3838e-05 4.21468e-06 8.3838e-05 7.76673e-05 1.38076e-05 3.15261e-05 4.21468e-06 0.00576492 0.185318 2.09522e-05 0.00403961 0.00439847 0.000857904 1.4406e-05 0.000110922 0.000251962 4.21468e-06 5.3719e-06 1.38076e-05 0.00127682 4.64493e-06 4.32387e-06 9.11938e-06 2.80904e-05 0.000110922 0.00628005 0.00151522 0.00127682 0.00364689 0.0038835 0.000251962 3.76475e-06 0.000187165 0.00403961 6.33494e-06 8.3838e-05 5.81379e-05 0.00127682 0.000115922 0.00051123 1.4406e-05 0.000410215 0.0019794 0.000349016 0.000251962 0.0566856 7.8448e-06 0.00151522 8.43313e-06 5.74138e-06 2.80904e-05 2.09522e-05 8.43313e-06 0.000857904 8.84138e-05 0.000187165 1.32528e-05 0.000858618 0.00127682 0.0441278 0.000349016 2.80904e-05 0.000410215 3.76475e-06 4.21468e-06 0.00310284 0.00439847 1.32528e-05 1.32528e-05 3.81646e-05 2.09522e-05 0.00439847 3.156e-05 4.32387e-06 9.11938e-06 0.000858618 0.000857904 4.64493e-06 1.4406e-05 3.15261e-05 4.21468e-06 0.00202135 7.76673e-05 0.000115922 8.3838e-05 0.00035504 5.74138e-06 0.000349016 0.000251962 0.00310284 0.000115922 1.4406e-05 3.76475e-06 0.000110922 0.000115922 6.33494e-06 0.235078 0.0019189 0.00576492 1.32528e-05 8.3838e-05 0.00035504 5.74138e-06 0.0441278 5.3719e-06 0.0441278 3.156e-05 0.000858618 7.76673e-05 0.0019189 8.84138e-05 5.81379e-05 
</DataArray>
<DataArray type="Float64" Name="cell variable 7" format="ascii">
0.357275 0.264653 0.176526 0.0863829 0.262734 0.109939 0.214434 0.109939 0.306453 0.285858 0.0738515 0.24144 0.142821 0.091923 0.203114 0.174715 0.203114 0.233945 0.203114 0.203114 0.214434 0.10127 0.2268 0.2268 0.340125 0.233945 0.290041 0.481302 0.233945 0.262734 0.340125 0.185875 0.103782 0.185875 0.262734 0.233945 0.311423 0.184332 0.172124 0.185875 0.288948 0.357275 0.129973 0.115625 0.185875 0.0813708 0.0788486 0.264653 0.225806 0.176526 0.129973 0.139181 0.259721 0.337987 0.172124 0.481302 0.0886341 0.15552 0.0788486 0.116913 0.203114 0.58017 0.091923 0.0863829 0.15552 0.214434 0.0779382 0.129973 0.227704 0.288948 0.184332 0.230311 0.255368 0.214434 0.225806 0.306453 0.311423 0.227704 0.255368 0.0788486 0.259721 0.162493 0.233945 0.142821 0.255368 0.285858 0.091923 0.0813708 0.0738515 0.306453 0.290041 0.162493 0.311423 0.360012 0.103782 0.103782 0.148901 0.115625 0.230311 0.214434 0.230311 0.091923 0.115625 0.360012 0.184332 0.115625 0.24144 0.214434 0.264653 0.116913 0.214434 0.142821 0.148901 0.172124 0.543895 0.334908 0.214434 0.176526 0.0788486 0.142859 0.288948 0.2268 0.285858 0.329428 0.290041 0.172124 0.347352 0.203114 0.10127 0.225806 0.225806 0.148901 0.142859 0.290041 0.174715 0.0886341 0.227704 0.142859 0.091923 0.142859 0.142821 0.0989326 0.0779382 0.337987 0.214434 0.103782 0.174715 0.10127 0.347352 0.129973 0.2268 0.103782 0.360012 0.115625 0.0989326 0.340125 0.116913 0.142821 0.214434 0.0886341 0.0863829 0.109939 0.129973 0.0886341 0.2268 0.148901 0.176526 0.264653 0.0788486 0.311423 0.399197 0.488241 0.203114 0.306453 0.129973 0.360012 0.0989326 0.0989326 0.329428 0.306453 0.0779382 0.0989326 0.0989326 0.176526 0.259721 0.262734 0.176526 0.0788486 0.360012 0.129973 0.214434 0.116913 0.0863829 0.285858 0.227704 0.142859 0.109939 0.148901 0.139181 0.227704 0.142821 0.288948 0.543895 0.176526 0.184332 0.227704 0.255368 0.162493 0.148901 0.259721 0.225806 0.172124 0.184332 0.233945 0.357275 0.544906 0.357275 0.172124 0.203114 0.0863829 0.422896 0.357275 0.264653 0.255368 0.329428 0.139181 0.2268 0.340125 0.262734 0.148901 0.357275 0.118245 0.129973 0.0813708 0.091923 0.115625 0.0813708 0.24144 0.255368 0.184332 0.10127 0.46057 0.329428 0.0788486 0.347352 0.285858 0.118245 0.15552 0.311423 0.0863829 0.0813708 0.203114 0.185875 0.311423 0.357275 0.148901 0.0813708 0.255368 0.259721 0.262734 0.0788486 0.225806 0.24144 0.255368 0.311423 0.184332 0.0738515 0.116913 0.262734 0.115625 0.0788486 0.142859 0.184332 0.214434 0.230311 0.184332 0.311423 0.184332 0.109939 0.306453 0.511928 0.15552 0.139181 0.116913 0.413855 0.184332 0.203114 0.185875 0.227704 0.0989326 0.329428 0.0738515 0.109939 0.347352 0.340125 0.139181 0.174715 0.0779382 0.174715 0.172124 0.116913 0.142821 0.0779382 0.334908 0.511928 0.129973 0.337987 0.360012 0.264653 0.118245 0.184332 0.214434 0.0779382 0.0863829 0.116913 0.285858 0.0813708 0.0788486 0.103782 0.139181 0.184332 0.347352 0.290041 0.285858 0.340125 0.357275 0.214434 0.0738515 0.203114 0.337987 0.091923 0.174715 0.162493 0.285858 0.185875 0.24144 0.118245 0.233945 0.311423 0.225806 0.214434 0.413855 0.0989326 0.290041 0.10127 0.0886341 0.139181 0.129973 0.10127 0.264653 0.176526 0.203114 0.115625 0.259721 0.285858 0.422896 0.225806 0.139181 0.233945 0.0738515 0.0779382 0.329428 0.360012 0.115625 0.115625 0.148901 0.129973 0.360012 0.142859 0.0788486 0.103782 0.259721 0.264653 0.0813708 0.118245 0.142821 0.0779382 0.288948 0.172124 0.185875 0.174715 0.2268 0.0886341 0.225806 0.214434 0.329428 0.185875 0.118245 0.0738515 0.184332 0.185875 0.091923 0.481302 0.306453 0.334908 0.115625 0.174715 0.2268 0.0886341 0.422896 0.0863829 0.422896 0.142859 0.259721 0.172124 0.306453 0.176526 0.162493 
</DataArray>
<DataArray type="Float64" Name="cell variable 8" format="ascii">