<VTKFile type="UnstructuredGrid" version="0.1">
<UnstructuredGrid>
<Piece  NumberOfPoints="    2425" NumberOfCells="     405">
<Points>
<DataArray type="Float64" NumberOfComponents="3" format="ascii">
28.82 -26.9687 0.0
28.1885 -27.6122 0.0
32.7077 -31.3202 0.0
34.1107 -29.9923 0.0
34.0491 -25.0568 0.0
38.7946 -42.6502 0.0
38.7394 -41.9751 0.0
32.4768 -41.3431 0.0
31.6587 -42.0099 0.0
28.9291 -47.1843 0.0
28.7957 -47.9508 0.0
24.8494 -18.3649 0.0
24.7517 -15.2003 0.0
18.9413 -17.3105 0.0
18.5966 -18.7554 0.0
19.1294 -19.6942 0.0
0.0127778 14.1742 0.0
-1.69051 15.8316 0.0
-9.66116 9.91417 0.0
-9.28914 7.81059 0.0
-9.03009 7.50539 0.0
-0.892642 13.4147 0.0
49.2413 -7.83349 0.0
50.3514 -6.81425 0.0
48.2947 -1.66069 0.0
45.3687 -4.08328 0.0
43.8839 -5.97316 0.0
45.173 -8.62085 0.0
52.4329 -6.23612 0.0
54.1835 -7.56419 0.0
57.3496 -3.33027 0.0
54.0271 -0.434363 0.0
-29.8137 -2.77638 0.0
-30.5258 -2.44973 0.0
-33.3965 -2.23328 0.0
-32.1468 -6.87825 0.0
-29.3021 -9.46098 0.0
-28.909 -9.70128 0.0
-28.1505 -9.50646 0.0
11.9382 -17.5134 0.0
13.4727 -15.3932 0.0
10.9558 -10.99 0.0
7.92192 -12.0323 0.0
10.2796 -16.2315 0.0
9.14993 52.9408 0.0
14.6454 51.6935 0.0
13.3984 53.9677 0.0
10.0405 57.7001 0.0
-49.1036 40.5189 0.0
-49.1996 40.0689 0.0
-48.3364 39.2148 0.0
-43.4601 36.9884 0.0
-42.6336 37.432 0.0
-39.4224 41.9622 0.0
-51.2763 -11.7444 0.0
-48.4412 -12.1337 0.0
-42.6334 -6.75155 0.0
-42.8283 -6.51013 0.0
-52.0882 -8.8816 0.0
-35.7009 -13.4492 0.0
-39.918 -11.7666 0.0
-40.9664 -13.0579 0.0
-40.8262 -15.6479 0.0
-40.4589 -18.2929 0.0
-40.331 -18.3614 0.0
-47.2783 -16.5354 0.0
-47.5587 -13.3851 0.0
-48.6195 -12.7048 0.0
-51.4546 -12.3155 0.0
-52.1094 -13.6996 0.0
-51.7447 -17.7924 0.0
-51.3098 -18.3754 0.0
-6.6044 -5.62904 0.0
-7.08544 -5.37008 0.0
-9.03139 -5.78357 0.0
-9.50288 -6.95126 0.0
-10.4288 -11.0534 0.0
-6.25569 -12.7462 0.0
-5.10327 -11.6432 0.0
30.5449 -6.60871 0.0
32.3069 -3.0643 0.0
31.9549 -2.73619 0.0
28.917 -2.65205 0.0
25.2173 -6.85406 0.0
25.0177 -7.78506 0.0
25.0831 -8.1604 0.0
-58.3757 -22.9351 0.0
-56.4284 -25.7615 0.0
-55.1432 -26.3398 0.0
-50.712 -21.7849 0.0
-51.7594 -19.1167 0.0
-52.1942 -18.5337 0.0
-17.8714 45.0295 0.0
-18.7351 44.9682 0.0
-19.6175 39.4432 0.0
-18.1309 39.3077 0.0
-15.4612 39.603 0.0
-15.0604 42.5752 0.0
-16.7479 44.4606 0.0
56.6688 6.29238 0.0
56.7594 13.7691 0.0
53.7295 13.3928 0.0
52.6325 10.2299 0.0
29.4604 -11.2479 0.0
33.7879 -10.5884 0.0
35.9166 -6.43756 0.0
34.2801 -4.27298 0.0
33.3079 -3.35287 0.0
32.7069 -3.30055 0.0
30.9449 -6.84495 0.0
30.0113 38.5192 0.0
30.9807 39.0093 0.0
29.4783 42.8429 0.0
26.8411 43.6687 0.0
25.5967 43.6187 0.0
23.7277 43.2598 0.0
45.91 23.8656 0.0
46.1471 24.0107 0.0
46.2691 24.3968 0.0
46.2204 24.9182 0.0
44.4835 26.9591 0.0
42.6679 27.4386 0.0
39.1477 25.9122 0.0
38.1509 25.1269 0.0
-12.6193 20.5827 0.0
-12.7644 20.67 0.0
-15.1725 20.633 0.0
-18.474 15.6897 0.0
-18.4518 13.8277 0.0
-17.1326 13.1714 0.0
23.0454 26.1803 0.0
24.5061 24.7369 0.0
30.3927 29.0749 0.0
30.2961 30.0505 0.0
26.0484 31.8076 0.0
29.0459 17.2345 0.0
32.0236 15.7383 0.0
35.207 17.721 0.0
35.6008 22.1147 0.0
35.238 23.0422 0.0
33.3201 23.8294 0.0
32.591 23.4605 0.0
-43.6798 36.5065 0.0
-48.5561 38.7329 0.0
-47.7021 31.6311 0.0
-46.0614 30.5376 0.0
-44.3071 34.9134 0.0
-35.2313 16.491 0.0
-37.7742 15.8393 0.0
-38.7401 12.5545 0.0
-36.7533 10.4824 0.0
-30.687 10.9305 0.0
-33.3202 25.1515 0.0
-33.7428 25.9862 0.0
-39.7067 22.5977 0.0
-40.3752 22.0655 0.0
-40.2455 20.3727 0.0
-38.8175 18.3663 0.0
-58.0259 16.188 0.0
-58.4024 15.8142 0.0
-58.5087 15.135 0.0
-57.6877 9.84624 0.0
-56.7063 8.26665 0.0
-52.6091 10.6436 0.0
51.567 -15.0986 0.0
50.5794 -14.5779 0.0
44.3702 -15.8469 0.0
44.0803 -16.4097 0.0
43.8977 -19.9896 0.0
46.3533 -20.7206 0.0
22.2082 -42.1199 0.0
23.4166 -41.877 0.0
30.4857 -36.4914 0.0
30.5441 -35.9407 0.0
30.2098 -35.3176 0.0
27.8716 -34.944 0.0
21.3335 -38.477 0.0
21.5808 -41.2452 0.0
-38.7118 0.438449 0.0
-39.6387 1.74724 0.0
-45.3323 3.61493 0.0
-45.4966 0.403842 0.0
-42.388 -1.74699 0.0
5.82993 33.8878 0.0
3.36686 34.98 0.0
1.96825 34.2574 0.0
-2.90435 29.3249 0.0
-2.16371 28.8109 0.0
9.25947 20.8098 0.0
7.70125 21.0279 0.0
2.19273 14.5497 0.0
2.51047 14.2858 0.0
6.90449 13.6735 0.0
7.23401 13.959 0.0
9.52865 16.8513 0.0
10.0701 19.3471 0.0
7.87003 32.8793 0.0
5.96591 33.7366 0.0
-2.02772 28.6596 0.0
-0.736436 27.7605 0.0
0.558805 28.1894 0.0
-25.1916 -26.1222 0.0
-25.6268 -25.6363 0.0
-26.6214 -25.5181 0.0
-29.5661 -28.5161 0.0
-30.2825 -30.1804 0.0
-27.1497 -33.4023 0.0
30.7956 46.4845 0.0
30.5194 47.0751 0.0
22.1357 48.6312 0.0
26.7844 44.1207 0.0
29.4215 43.2949 0.0
30.7874 45.246 0.0
-4.06621 29.3803 0.0
-3.27487 29.3532 0.0
1.59774 34.2857 0.0
-4.23504 34.5118 0.0
-3.55573 -55.4483 0.0
-1.59086 -54.0821 0.0
-5.33111 -46.097 0.0
-5.52761 -46.1196 0.0
-6.01148 -51.0428 0.0
-5.66697 -54.8016 0.0
-5.34238 -55.0388 0.0
-47.9314 -23.5088 0.0
-50.4188 -22.1023 0.0
-54.85 -26.6572 0.0
-52.8822 -29.0208 0.0
-51.8802 -29.5386 0.0
42.2191 -21.05 0.0
43.2611 -20.159 0.0
43.4436 -16.5791 0.0
38.4854 -18.3551 0.0
35.4915 -19.5863 0.0
38.7526 26.2961 0.0
42.2728 27.8225 0.0
41.272 29.5889 0.0
39.2557 32.4354 0.0
35.038 30.8263 0.0
-44.0695 15.7962 0.0
-40.8968 20.01 0.0
-41.0265 21.7028 0.0
-41.9929 22.315 0.0
-47.9958 16.3142 0.0
20.3735 -38.838 0.0
20.2299 -38.7269 0.0
10.4677 -42.962 0.0
9.50521 -44.3687 0.0
13.5517 -43.9792 0.0
20.6208 -41.6062 0.0
-40.7163 11.0012 0.0
-40.0736 11.9879 0.0
-44.8409 12.9581 0.0
-47.8514 9.51123 0.0
-45.7125 7.59342 0.0
-42.8683 8.53598 0.0
22.5126 -51.4965 0.0
16.3134 -54.1716 0.0
15.4926 -54.9264 0.0
18.5356 -60.0986 0.0
20.2101 -60.0363 0.0
-18.8426 -56.6444 0.0
-15.8606 -58.6732 0.0
-11.4083 -55.5341 0.0
-11.0544 -54.9071 0.0
-12.3283 -53.1268 0.0
-14.6296 -52.1067 0.0
-16.4866 -51.6288 0.0
6.45768 -10.8935 0.0
7.07852 -11.0846 0.0
15.0284 -5.22957 0.0
14.9803 -4.40505 0.0
14.0679 -3.9395 0.0
13.3558 -3.98881 0.0
6.75727 -9.11034 0.0
25.0812 34.4029 0.0
19.2442 37.2954 0.0
18.797 32.4057 0.0
19.5858 32.0598 0.0
25.2179 32.8409 0.0
-11.6687 52.9419 0.0
-9.4521 52.6651 0.0
-4.76596 56.0594 0.0
-4.87249 56.8765 0.0
-11.9447 57.8023 0.0
18.0351 -18.5649 0.0
18.3798 -17.12 0.0
19.271 -13.3023 0.0
16.7184 -11.9208 0.0
14.02 -15.5592 0.0
12.4855 -17.6794 0.0
12.5934 -18.1082 0.0
24.7595 11.3941 0.0
26.731 7.06897 0.0
28.6666 8.49319 0.0
31.866 10.9615 0.0
31.8821 11.1905 0.0
31.3992 13.1235 0.0
-43.0018 -4.54581 0.0
-42.8001 -2.07697 0.0
-45.9088 0.0738601 0.0
-47.0134 -0.171249 0.0
-49.6743 -0.746785 0.0
-51.3299 -3.53623 0.0
6.49033 -45.8296 0.0
6.99811 -45.2061 0.0
5.03364 -39.7671 0.0
-0.0294514 -40.7707 0.0
-1.08986 -42.1066 0.0
-1.10853 -42.3313 0.0
3.04559 -44.8674 0.0
-14.2903 38.4701 0.0
-9.42608 41.6271 0.0
-11.5179 44.3524 0.0
-14.5795 42.539 0.0
-14.9803 39.5669 0.0
-21.944 19.0276 0.0
-22.7044 22.4475 0.0
-23.5339 23.5676 0.0
-24.8851 23.6261 0.0
-27.0302 22.1094 0.0
-28.2206 17.897 0.0
-26.8404 15.5862 0.0
-33.4361 -47.1137 0.0
-31.606 -46.9678 0.0
-32.2459 -40.6875 0.0
-36.2339 -40.8498 0.0
-36.4502 -42.891 0.0
18.0943 17.6701 0.0
17.3592 17.6115 0.0
14.6291 14.0886 0.0
17.6568 10.8799 0.0
19.2596 12.1981 0.0
21.0012 13.6998 0.0
18.8912 17.1346 0.0
1.07688 -59.4307 0.0
1.88828 -62.9195 0.0
8.91254 -58.883 0.0
9.3762 -58.2702 0.0
9.24966 -56.91 0.0
9.04085 -56.9289 0.0
7.81437 -57.0137 0.0
13.1693 -3.75894 0.0
7.80543 -1.94079 0.0
6.03345 -6.28811 0.0
6.57075 -8.88047 0.0
18.1344 -2.46427 0.0
23.0403 -4.89121 0.0
23.4033 1.37327 0.0
22.3311 1.78459 0.0
21.0062 1.63205 0.0
19.9508 1.53375 0.0
28.9046 -11.4848 0.0
30.3892 -7.08189 0.0
24.9274 -8.63359 0.0
24.5695 -12.0144 0.0
25.2323 -12.6161 0.0
28.2585 -12.0615 0.0
30.2667 47.4562 0.0
30.1788 48.3373 0.0
27.511 51.144 0.0
20.3072 51.9855 0.0
19.1681 50.7445 0.0
21.8829 49.0123 0.0
23.1346 -48.469 0.0
21.1689 -44.9293 0.0
16.9197 -47.6198 0.0
16.8077 -49.8138 0.0
-1.78355 16.1276 0.0
-2.3336 17.4326 0.0
-3.63033 18.1193 0.0
-6.10819 17.6444 0.0
-10.2837 11.342 0.0
-9.7542 10.2102 0.0
32.1388 10.6581 0.0
28.9394 8.18982 0.0
29.999 3.53868 0.0
33.4618 8.10811 0.0
-29.0348 3.79046 0.0
-29.531 3.43167 0.0
-30.2332 -1.9021 0.0
-29.521 -2.22875 0.0
-25.0138 -2.66394 0.0
-24.68 -1.85796 0.0
-25.4687 0.25104 0.0
-5.10108 3.34717 0.0
-5.60559 0.530342 0.0
-0.8473 -2.84232 0.0
-0.639434 -2.65683 0.0
-0.029445 -0.474777 0.0
-2.09959 2.92376 0.0
-3.36179 3.66004 0.0
21.3263 13.057 0.0
19.5847 11.5554 0.0
20.9924 2.54821 0.0
22.3173 2.70074 0.0
21.5933 12.9782 0.0
-17.4347 45.7596 0.0
-16.3113 45.1907 0.0
-9.00491 50.2311 0.0
-9.84949 52.0372 0.0
-12.0661 52.3141 0.0
-12.756 52.1633 0.0
-18.5915 -39.7002 0.0
-17.7788 -39.3465 0.0
-14.6407 -34.9486 0.0
-16.9358 -33.0515 0.0
-21.0011 -35.1501 0.0
32.7237 38.18 0.0
33.5099 37.5288 0.0
39.1214 35.7241 0.0
40.5494 36.7444 0.0
40.5884 37.1836 0.0
36.3574 40.4805 0.0
-14.9841 36.1445 0.0
-19.1928 33.1719 0.0
-18.8889 29.5999 0.0
-15.2936 28.4393 0.0
-14.1701 29.3628 0.0
33.8812 -2.66574 0.0
34.8534 -3.58584 0.0
41.5608 -1.18846 0.0
41.8613 2.75882 0.0
37.9359 0.601468 0.0
43.5542 -31.6087 0.0
43.2648 -34.3572 0.0
43.732 -35.6052 0.0
44.1726 -35.6859 0.0
45.708 -35.4325 0.0
49.5054 -31.4211 0.0
-9.00375 52.3758 0.0
-8.15917 50.5696 0.0
-7.21207 49.7837 0.0
0.597277 51.9635 0.0
0.618737 52.4161 0.0
-4.3176 55.7701 0.0
-27.1006 32.8706 0.0
-27.0385 31.9441 0.0
-24.8116 24.4482 0.0
-23.4604 24.3897 0.0
-21.5327 27.6602 0.0
-39.9842 -43.4295 0.0
-37.006 -42.5694 0.0
-36.7897 -40.5283 0.0
-37.7836 -39.0339 0.0
-39.4296 -37.3632 0.0
-42.2667 -38.0411 0.0
1.74693 51.6651 0.0
6.0967 49.5758 0.0
10.123 48.1644 0.0
7.98236 52.7432 0.0
4.56764 54.1251 0.0
1.66876 52.3009 0.0
1.6473 51.8483 0.0
38.0617 1.13142 0.0
41.9871 3.28876 0.0
42.7462 4.76252 0.0
42.3458 6.31158 0.0
39.6744 7.21699 0.0
37.1855 6.42808 0.0
-40.9136 -18.7107 0.0
-41.281 -16.0657 0.0
-46.2386 -17.7557 0.0
-45.0242 -22.0573 0.0
8.00998 -37.0708 0.0
10.5872 -36.263 0.0
10.7364 -33.6318 0.0
6.33199 -31.4403 0.0
5.55602 -31.536 0.0
50.4266 37.2184 0.0
50.0659 38.0948 0.0
[...]
<CellData Scalars="cell variable 4" Vectors="cell vector">
<DataArray type="Float64" NumberOfComponents="3" Name="cell vector" format="ascii">
0 0 0
0 0 0
0 0 0
0 0 0
0 0 0
0 0 0
0 0 0
0 0 0
0 0 0
0 0 0
0 0 0
0 0 0
0 0 0
0 0 0
0 0 0
0 0 0
0 0 0
0 0 0
0 0 0
0 0 0
0 0 0
0 0 0
0 0 0
0 0 0
0 0 0
0 0 0
0 0 0
0 0 0
0 0 0
0 0 0
0 0 0
0 0 0
0 0 0
0 0 0
0 0 0
0 0 0
0 0 0
0 0 0
0 0 0
0 0 0
0 0 0
0 0 0
0 0 0
0 0 0
0 0 0
0 0 0
0 0 0
0 0 0
0 0 0
0 0 0
0 0 0
0 0 0
0 0 0
0 0 0
0 0 0
0 0 0
0 0 0
0 0 0
0 0 0
0 0 0
0 0 0
0 0 0
0 0 0
0 0 0
0 0 0
0 0 0
0 0 0
0 0 0
0 0 0
0 0 0
0 0 0
0 0 0
0 0 0
0 0 0
0 0 0
0 0 0
0 0 0
0 0 0
0 0 0
0 0 0
0 0 0
0 0 0
0 0 0
0 0 0
0 0 0
0 0 0
0 0 0
0 0 0
0 0 0
0 0 0
0 0 0
0 0 0
0 0 0
0 0 0
0 0 0
0 0 0
0 0 0
0 0 0
0 0 0
0 0 0
0 0 0
0 0 0
0 0 0
0 0 0
0 0 0
0 0 0
0 0 0
0 0 0
0 0 0
0 0 0
0 0 0
0 0 0
0 0 0
0 0 0
0 0 0
0 0 0
0 0 0
0 0 0
0 0 0
0 0 0
0 0 0
0 0 0
0 0 0
0 0 0
0 0 0
0 0 0
0 0 0
0 0 0
0 0 0
0 0 0
0 0 0
0 0 0
0 0 0
0 0 0
0 0 0
0 0 0
0 0 0
0 0 0
0 0 0
0 0 0
0 0 0
0 0 0
0 0 0
0 0 0
0 0 0
0 0 0
0 0 0
0 0 0
0 0 0
0 0 0
0 0 0
0 0 0
0 0 0
0 0 0
0 0 0
0 0 0
0 0 0
0 0 0
0 0 0
0 0 0
0 0 0
0 0 0
0 0 0
0 0 0
0 0 0
0 0 0
0 0 0
0 0 0
0 0 0
0 0 0
0 0 0
0 0 0
0 0 0
0 0 0
0 0 0
0 0 0
0 0 0
0 0 0
0 0 0
0 0 0
0 0 0
0 0 0
0 0 0
0 0 0
0 0 0
0 0 0
0 0 0
0 0 0
0 0 0
0 0 0
0 0 0
0 0 0
0 0 0
0 0 0
0 0 0
0 0 0
0 0 0
0 0 0
0 0 0
0 0 0
0 0 0
0 0 0
0 0 0
0 0 0
0 0 0
0 0 0
0 0 0
0 0 0
0 0 0
0 0 0
0 0 0
0 0 0
0 0 0
0 0 0
0 0 0
0 0 0
0 0 0
0 0 0
0 0 0
0 0 0
0 0 0
0 0 0
0 0 0
0 0 0
0 0 0
0 0 0
0 0 0
0 0 0
0 0 0
0 0 0
0 0 0
0 0 0
0 0 0
0 0 0
0 0 0
0 0 0
0 0 0
0 0 0
0 0 0
0 0 0
0 0 0
0 0 0
0 0 0
0 0 0
0 0 0
0 0 0
0 0 0
0 0 0
0 0 0
0 0 0
0 0 0
0 0 0
0 0 0
0 0 0
0 0 0
0 0 0
0 0 0
0 0 0
0 0 0
0 0 0
0 0 0
0 0 0
0 0 0
0 0 0
0 0 0
0 0 0
0 0 0
0 0 0
0 0 0
0 0 0
0 0 0
0 0 0
0 0 0
0 0 0
0 0 0
0 0 0
0 0 0
0 0 0
0 0 0
0 0 0
0 0 0
0 0 0
0 0 0
0 0 0
0 0 0
0 0 0
0 0 0
0 0 0
0 0 0
0 0 0
0 0 0
0 0 0
0 0 0
0 0 0
0 0 0
0 0 0
0 0 0
0 0 0
0 0 0
0 0 0
0 0 0
0 0 0
0 0 0
0 0 0
0 0 0
0 0 0
0 0 0
0 0 0
0 0 0
0 0 0
0 0 0
0 0 0
0 0 0
0 0 0
0 0 0
0 0 0
0 0 0
0 0 0
0 0 0
0 0 0
0 0 0
0 0 0
0 0 0
0 0 0
0 0 0
0 0 0
0 0 0
0 0 0
0 0 0
0 0 0
0 0 0
0 0 0
0 0 0
0 0 0
0 0 0
0 0 0
0 0 0
0 0 0
0 0 0
0 0 0
0 0 0
0 0 0
0 0 0
0 0 0
0 0 0
0 0 0
0 0 0
0 0 0
0 0 0
0 0 0
0 0 0
0 0 0
0 0 0
0 0 0
0 0 0
0 0 0
0 0 0
0 0 0
0 0 0
0 0 0
0 0 0
0 0 0
0 0 0
0 0 0
0 0 0
0 0 0
0 0 0
0 0 0
0 0 0
0 0 0
0 0 0
0 0 0
0 0 0
0 0 0
0 0 0
0 0 0
0 0 0
0 0 0
0 0 0
0 0 0
0 0 0
0 0 0
0 0 0
0 0 0
0 0 0
0 0 0
0 0 0
0 0 0
0 0 0
0 0 0
0 0 0
0 0 0
0 0 0
0 0 0
0 0 0
0 0 0
0 0 0
0 0 0
0 0 0
0 0 0
0 0 0
0 0 0
0 0 0
0 0 0
0 0 0
</DataArray>
<DataArray type="Float64" Name="cell vector length" format="ascii">
0 0 0 0 0 0 0 0 0 0 0 0 0 0 0 0 0 0 0 0 0 0 0 0 0 0 0 0 0 0 0 0 0 0 0 0 0 0 0 0 0 0 0 0 0 0 0 0 0 0 0 0 0 0 0 0 0 0 0 0 0 0 0 0 0 0 0 0 0 0 0 0 0 0 0 0 0 0 0 0 0 0 0 0 0 0 0 0 0 0 0 0 0 0 0 0 0 0 0 0 0 0 0 0 0 0 0 0 0 0 0 0 0 0 0 0 0 0 0 0 0 0 0 0 0 0 0 0 0 0 0 0 0 0 0 0 0 0 0 0 0 0 0 0 0 0 0 0 0 0 0 0 0 0 0 0 0 0 0 0 0 0 0 0 0 0 0 0 0 0 0 0 0 0 0 0 0 0 0 0 0 0 0 0 0 0 0 0 0 0 0 0 0 0 0 0 0 0 0 0 0 0 0 0 0 0 0 0 0 0 0 0 0 0 0 0 0 0 0 0 0 0 0 0 0 0 0 0 0 0 0 0 0 0 0 0 0 0 0 0 0 0 0 0 0 0 0 0 0 0 0 0 0 0 0 0 0 0 0 0 0 0 0 0 0 0 0 0 0 0 0 0 0 0 0 0 0 0 0 0 0 0 0 0 0 0 0 0 0 0 0 0 0 0 0 0 0 0 0 0 0 0 0 0 0 0 0 0 0 0 0 0 0 0 0 0 0 0 0 0 0 0 0 0 0 0 0 0 0 0 0 0 0 0 0 0 0 0 0 0 0 0 0 0 0 0 0 0 0 0 0 0 0 0 0 0 0 0 0 0 0 0 0 0 0 0 0 0 0 0 0 0 0 0 0 0 0 0 0 0 0 0 0 0 0 0 0 0 0 0 0 0 0 0 0 0 0 0 0 0 0 0 0 0 0 
</DataArray>
<DataArray type="Float64" Name="cell variable 4" format="ascii">
0.316217 0.000510187 0.657465 1.07467 0.249242 0.0032488 0.542818 0.94865 0.0505895 0.000137838 0.23011 0.479217 0.23011 1.04461 0.573608 0.000586701 0.334198 0.0032488 0.573608 0.161465 0.27464 0.99432 0.511974 0.511974 0.000425284 0.495708 0.393381 0.00403603 0.0824302 0.163146 0.332003 0.626025 0.980966 0.626025 0.437452 0.161465 0.36504 0.184973 0.00760007 0.313432 0.252014 0.179448 0.187543 0.179448 0.000160982 0.000319359 1.11547 0.434405 0.000705084 0.657465 0.848855 0.23011 0.442722 0.33356 0.673042 0.136507 1.06245 0.000237451 1.11547 0.912892 0.573608 0.161465 0.187543 1.07467 0.736473 0.542818 1.12037 0.848855 0.130161 0.393247 0.00370628 0.503886 0.45141 0.118662 0.0976075 0.371127 0.000116047 0.0505895 0.45141 0.23011 0.442722 0.00103121 0.495708 0.0032488 0.118662 0.399988 0.0824302 1.10185 1.14226 0.371127 0.184973 0.708918 5.26566e-05 0.334198 4.42555e-05 0.00273317 0.118662 0.919422 0.00103121 0.163146 0.503886 1.04461 0.249242 0.313432 0.631062 0.919422 0.479217 0.0978407 0.434405 0.912892 0.542818 0.000306373 0.000157331 0.673042 0.184059 0.334198 0.542818 6.16323e-05 1.11547 0.789941 0.00403603 0.153908 0.399988 0.343308 0.393381 0.673042 0.179448 0.573608 0.99432 0.514292 0.514292 0.153908 0.789941 0.000705084 0.66381 0.136507 0.50937 0.0773391 1.04461 0.0505895 0.184973 1.00681 1.12037 0.393247 0.187543 0.980966 0.66381 0.99432 0.32239 0.848855 0.0773391 0.980966 0.00151096 0.919422 1.00681 0.161465 0.23011 0.790107 0.542818 0.0032488 0.0097703 0.94865 0.848855 0.136507 0.187543 0.763876 0.657465 0.0505895 0.184973 0.36504 0.27464 0.184973 0.00403603 0.371127 0.163146 0.313432 1.00681 1.00681 0.130161 0.0824302 1.12037 0.179448 0.00760007 0.000331293 0.00103121 0.437452 0.657465 1.11547 0.313432 0.136507 0.23011 0.0646441 1.07467 0.399988 0.50937 0.000209614 0.94865 0.0773391 0.8063 4.18495e-05 0.790107 0.393247 0.161465 0.657465 0.631062 0.50937 0.45141 0.00760007 8.68069e-05 0.442722 0.514292 0.000157331 0.631062 0.495708 0.0773391 0.153908 0.316217 0.136507 0.184973 0.00403603 0.252014 0.316217 0.434405 0.00145277 0.000306373 0.8063 0.511974 0.332003 0.0978407 0.763876 0.000157331 0.90618 0.27464 0.187543 0.000510187 0.0646441 1.10185 0.479217 0.00370628 0.631062 0.184059 0.187543 0.343308 0.32239 0.32239 0.399988 0.90618 0.736473 0.153908 0.0032488 0.00760007 0.393247 0.626025 0.36504 0.316217 0.763876 1.10185 0.27464 0.0097703 0.437452 0.32239 0.514292 0.184059 0.45141 0.36504 0.27464 0.0978407 0.0505895 0.437452 0.919422 0.000319359 0.789941 0.136507 0.542818 0.153908 0.000586701 0.136507 0.631062 0.184973 0.0505895 0.187543 0.736473 0.00370628 0.00103121 0.00103121 0.631062 0.00760007 0.343308 0.50937 0.0097703 0.0505895 0.23011 0.94865 0.0978407 0.332003 0.0032488 0.0646441 0.184973 0.66381 0.673042 0.912892 0.790107 0.153908 0.179448 0.0646441 0.118662 0.33356 0.00145277 0.161465 0.90618 0.631062 0.542818 1.12037 1.07467 0.912892 0.153908 0.130161 1.11547 0.980966 0.8063 0.0824302 0.32239 0.161465 0.399988 0.332003 0.118662 0.153908 1.14226 0.573608 0.33356 0.163146 0.0824302 0.708918 0.252014 0.626025 0.479217 0.90618 0.495708 0.36504 0.118662 0.542818 0.249242 0.130161 0.393381 0.000425284 1.06245 0.187543 0.848855 0.33356 0.434405 0.657465 0.573608 0.919422 0.442722 0.399988 0.252014 0.514292 0.8063 0.00273317 1.14226 0.000237451 0.343308 0.313432 0.919422 0.919422 0.763876 0.00145277 0.313432 0.789941 1.11547 0.000116047 0.442722 0.0773391 1.10185 0.23011 0.790107 0.136507 0.184059 0.673042 0.00370628 0.66381 0.000160982 1.06245 0.514292 0.0976075 0.00151096 0.252014 0.249242 1.14226 0.631062 0.626025 1.04461 0.179448 0.371127 0.334198 0.919422 0.00151096 0.511974 1.06245 0.161465 0.0505895 0.736473 0.0824302 0.0773391 0.00370628 
</DataArray>
<DataArray type="Float64" Name="cell variable 5" format="ascii">
0.0909148 0.999974 0.0226112 0.00858434 0.138655 0.998946 0.0328244 0.0109898 0.796223 0.999998 0.158855 0.0417277 0.158855 0.00908091 0.0294962 0.999966 0.082177 0.998946 0.0294962 0.277231 0.117059 0.0100133 0.0367488 0.0367488 0.999982 0.0391044 0.0606986 0.998374 0.595425 0.273099 0.0831765 0.0248813 0.0102849 0.0248813 0.0496613 0.277231 0.0698059 0.226167 0.994257 0.0923878 0.136034 0.236958 0.221374 0.236958 0.999997 0.99999 0.00797274 0.0503251 0.99995 0.0226112 0.0136882 0.158855 0.0485429 0.0824658 0.021599 0.349234 0.00878122 0.999994 0.00797274 0.0118572 0.0294962 0.277231 0.221374 0.00858434 0.0181031 0.0328244 0.00790366 0.0136882 0.371169 0.0607373 0.998628 0.037893 0.0467791 0.415271 0.512105 0.0676886 0.999999 0.796223 0.0467791 0.158855 0.0485429 0.999894 0.0391044 0.998946 0.415271 0.0588268 0.595425 0.00816951 0.00760594 0.0676886 0.226167 0.0195097 1 0.082177 1 0.999254 0.415271 0.0116913 0.999894 0.273099 0.037893 0.00908091 0.138655 0.0923878 0.0244954 0.0116913 0.0417277 0.510913 0.0503251 0.0118572 0.0328244 0.999991 0.999998 0.021599 0.227907 0.082177 0.0328244 1 0.00797274 0.0157727 0.998374 0.296844 0.0588268 0.0782104 0.0606986 0.021599 0.236958 0.0294962 0.0100133 0.0364304 0.0364304 0.296844 0.0157727 0.99995 0.0221905 0.349234 0.0371116 0.62573 0.00908091 0.796223 0.226167 0.00976872 0.00790366 0.0607373 0.221374 0.0102849 0.0221905 0.0100133 0.0877689 0.0136882 0.62573 0.0102849 0.999772 0.0116913 0.00976872 0.277231 0.158855 0.0157662 0.0328244 0.998946 0.990544 0.0109898 0.0136882 0.349234 0.221374 0.016849 0.0226112 0.796223 0.226167 0.0698059 0.117059 0.226167 0.998374 0.0676886 0.273099 0.0923878 0.00976872 0.00976872 0.371169 0.595425 0.00790366 0.236958 0.994257 0.999989 0.999894 0.0496613 0.0226112 0.00797274 0.0923878 0.349234 0.158855 0.705275 0.00858434 0.0588268 0.0371116 0.999996 0.0109898 0.62573 0.0151488 1 0.0157662 0.0607373 0.277231 0.0226112 0.0244954 0.0371116 0.0467791 0.994257 0.999999 0.0485429 0.0364304 0.999998 0.0244954 0.0391044 0.62573 0.296844 0.0909148 0.349234 0.226167 0.998374 0.136034 0.0909148 0.0503251 0.999789 0.999991 0.0151488 0.0367488 0.0831765 0.510913 0.016849 0.999998 0.0120314 0.117059 0.221374 0.999974 0.705275 0.00816951 0.0417277 0.998628 0.0244954 0.227907 0.221374 0.0782104 0.0877689 0.0877689 0.0588268 0.0120314 0.0181031 0.296844 0.998946 0.994257 0.0607373 0.0248813 0.0698059 0.0909148 0.016849 0.00816951 0.117059 0.990544 0.0496613 0.0877689 0.0364304 0.227907 0.0467791 0.0698059 0.117059 0.510913 0.796223 0.0496613 0.0116913 0.99999 0.0157727 0.349234 0.0328244 0.296844 0.999966 0.349234 0.0244954 0.226167 0.796223 0.221374 0.0181031 0.998628 0.999894 0.999894 0.0244954 0.994257 0.0782104 0.0371116 0.990544 0.796223 0.158855 0.0109898 0.510913 0.0831765 0.998946 0.705275 0.226167 0.0221905 0.021599 0.0118572 0.0157662 0.296844 0.236958 0.705275 0.415271 0.0824658 0.999789 0.277231 0.0120314 0.0244954 0.0328244 0.00790366 0.00858434 0.0118572 0.296844 0.371169 0.00797274 0.0102849 0.0151488 0.595425 0.0877689 0.277231 0.0588268 0.0831765 0.415271 0.296844 0.00760594 0.0294962 0.0824658 0.273099 0.595425 0.0195097 0.136034 0.0248813 0.0417277 0.0120314 0.0391044 0.0698059 0.415271 0.0328244 0.138655 0.371169 0.0606986 0.999982 0.00878122 0.221374 0.0136882 0.0824658 0.0503251 0.0226112 0.0294962 0.0116913 0.0485429 0.0588268 0.136034 0.0364304 0.0151488 0.999254 0.00760594 0.999994 0.0782104 0.0923878 0.0116913 0.0116913 0.016849 0.999789 0.0923878 0.0157727 0.00797274 0.999999 0.0485429 0.62573 0.00816951 0.158855 0.0157662 0.349234 0.227907 0.021599 0.998628 0.0221905 0.999997 0.00878122 0.0364304 0.512105 0.999772 0.136034 0.138655 0.00760594 0.0244954 0.0248813 0.00908091 0.236958 0.0676886 0.082177 0.0116913 0.999772 0.0367488 0.00878122 0.277231 0.796223 0.0181031 0.595425 0.62573 0.998628 
</DataArray>
<DataArray type="Float64" Name="cell variable 6" format="ascii">
0.0038835 1.00883 8.84138e-05 5.3719e-06 0.0566856 1.00681 0.000251962 1.10661e-05 0.900072 1.00908 0.0671729 0.00051123 0.0671729 6.33494e-06 0.000187165 1.00878 0.00576492 1.00681 0.000187165 0.298329 0.02163 8.43313e-06 0.00035504 0.00035504 1.00889 0.000410215 0.00151522 1.00605 0.752638 0.294057 0.00364689 0.000115922 9.11938e-06 0.000115922 0.000885689 0.298329 0.0019794 0.208208 1.00277 0.00439847 0.0441278 0.235078 0.185318 0.235078 1.00907 1.00896 4.32387e-06 0.000857904 1.0087 8.84138e-05 2.09522e-05 0.0671729 0.000858618 0.00403961 7.76673e-05 0.432355 5.74138e-06 1.00902 4.32387e-06 1.38076e-05 0.000187165 0.298329 0.185318 5.3719e-06 4.69278e-05 0.000251962 4.21468e-06 2.09522e-05 0.477444 0.00202135 1.00642 0.000380196 0.000696942 0.533485 0.67289 0.0019189 1.0091 0.900072 0.000696942 0.0671729 0.000858618 1.00849 0.000410215 1.00681 0.533485 0.00127682 0.752638 4.64493e-06 3.76475e-06 0.0019189 0.208208 5.81379e-05 1.00914 0.00576492 1.00914 1.00716 0.533485 1.32528e-05 1.00849 0.294057 0.000380196 6.33494e-06 0.0566856 0.00439847 0.000110922 1.32528e-05 0.00051123 0.674122 0.000857904 1.38076e-05 0.000251962 1.00897 1.00907 7.76673e-05 0.235443 0.00576492 0.000251962 1.00913 4.32387e-06 3.156e-05 1.00605 0.3398 0.00127682 0.00310284 0.00151522 7.76673e-05 0.235078 0.000187165 8.43313e-06 0.000349016 0.000349016 0.3398 3.156e-05 1.0087 8.3838e-05 0.432355 0.000394946 0.780596 6.33494e-06 0.900072 0.208208 7.8448e-06 4.21468e-06 0.00202135 0.185318 9.11938e-06 8.3838e-05 8.43313e-06 0.00628005 2.09522e-05 0.780596 9.11938e-06 1.00816 1.32528e-05 7.8448e-06 0.298329 0.0671729 3.15261e-05 0.000251962 1.00681 1.00014 1.10661e-05 2.09522e-05 0.432355 0.185318 3.81646e-05 8.84138e-05 0.900072 0.208208 0.0019794 0.02163 0.208208 1.00605 0.0019189 0.294057 0.00439847 7.8448e-06 7.8448e-06 0.477444 0.752638 4.21468e-06 0.235078 1.00277 1.00895 1.00849 0.000885689 8.84138e-05 4.32387e-06 0.00439847 0.432355 0.0671729 0.841792 5.3719e-06 0.00127682 0.000394946 1.00904 1.10661e-05 0.780596 2.80904e-05 1.00915 3.15261e-05 0.00202135 0.298329 8.84138e-05 0.000110922 0.000394946 0.000696942 1.00277 1.00912 0.000858618 0.000349016 1.00907 0.000110922 0.000410215 0.780596 0.3398 0.0038835 0.432355 0.208208 1.00605 0.0441278 0.0038835 0.000857904 1.00814 1.00897 2.80904e-05 0.00035504 0.00364689 0.674122 3.81646e-05 1.00907 1.4406e-05 0.02163 0.185318 1.00883 0.841792 4.64493e-06 0.00051123 1.00642 0.000110922 0.235443 0.185318 0.00310284 0.00628005 0.00628005 0.00127682 1.4406e-05 4.69278e-05 0.3398 1.00681 1.00277 0.00202135 0.000115922 0.0019794 0.0038835 3.81646e-05 4.64493e-06 0.02163 1.00014 0.000885689 0.00628005 0.000349016 0.235443 0.000696942 0.0019794 0.02163 0.674122 0.900072 0.000885689 1.32528e-05 1.00896 3.156e-05 0.432355 0.000251962 0.3398 1.00878 0.432355 0.000110922 0.208208 0.900072 0.185318 4.69278e-05 1.00642 1.00849 1.00849 0.000110922 1.00277 0.00310284 0.000394946 1.00014 0.900072 0.0671729 1.10661e-05 0.674122 0.00364689 1.00681 0.841792 0.208208 8.3838e-05 7.76673e-05 1.38076e-05 3.15261e-05 0.3398 0.235078 0.841792 0.533485 0.00403961 1.00814 0.298329 1.4406e-05 0.000110922 0.000251962 4.21468e-06 5.3719e-06 1.38076e-05 0.3398 0.477444 4.32387e-06 9.11938e-06 2.80904e-05 0.752638 0.00628005 0.298329 0.00127682 0.00364689 0.533485 0.3398 3.76475e-06 0.000187165 0.00403961 0.294057 0.752638 5.81379e-05 0.0441278 0.000115922 0.00051123 1.4406e-05 0.000410215 0.0019794 0.533485 0.000251962 0.0566856 0.477444 0.00151522 1.00889 5.74138e-06 0.185318 2.09522e-05 0.00403961 0.000857904 8.84138e-05 0.000187165 1.32528e-05 0.000858618 0.00127682 0.0441278 0.000349016 2.80904e-05 1.00716 3.76475e-06 1.00902 0.00310284 0.00439847 1.32528e-05 1.32528e-05 3.81646e-05 1.00814 0.00439847 3.156e-05 4.32387e-06 1.0091 0.000858618 0.780596 4.64493e-06 0.0671729 3.15261e-05 0.432355 0.235443 7.76673e-05 1.00642 8.3838e-05 1.00907 5.74138e-06 0.000349016 0.67289 1.00816 0.0441278 0.0566856 3.76475e-06 0.000110922 0.000115922 6.33494e-06 0.235078 0.0019189 0.00576492 1.32528e-05 1.00816 0.00035504 5.74138e-06 0.298329 0.900072 4.69278e-05 0.752638 0.780596 1.00642 
</DataArray>
<DataArray type="Float64" Name="cell variable 7" format="ascii">
0.357275 0.805214 0.176526 0.0863829 0.413855 0.731648 0.214434 0.109939 0.667622 0.818915 0.46057 0.24144 0.46057 0.091923 0.203114 0.789622 0.334908 0.731648 0.203114 0.543895 0.399197 0.10127 0.2268 0.2268 0.777768 0.233945 0.290041 0.781706 0.652741 0.531783 0.340125 0.185875 0.103782 0.185875 0.262734 0.543895 0.311423 0.488241 0.695937 0.360012 0.422896 0.481302 0.511928 0.481302 0.804465 0.786592 0.0788486 0.264653 0.790771 0.176526 0.129973 0.46057 0.259721 0.337987 0.172124 0.58017 0.0886341 0.815305 0.0788486 0.116913 0.203114 0.543895 0.511928 0.0863829 0.15552 0.214434 0.0779382 0.129973 0.557964 0.288948 0.736426 0.230311 0.255368 0.633332 0.58928 0.306453 0.821805 0.667622 0.255368 0.46057 0.259721 0.74517 0.233945 0.731648 0.633332 0.285858 0.652741 0.0813708 0.0738515 0.306453 0.488241 0.162493 0.808066 0.334908 0.85435 0.786302 0.633332 0.115625 0.74517 0.531783 0.230311 0.091923 0.413855 0.360012 0.184332 0.115625 0.24144 0.570965 0.264653 0.116913 0.214434 0.774006 0.802201 0.172124 0.426674 0.334908 0.214434 0.804393 0.0788486 0.142859 0.781706 0.544906 0.285858 0.329428 0.290041 0.172124 0.481302 0.203114 0.10127 0.225806 0.225806 0.544906 0.142859 0.790771 0.174715 0.58017 0.227704 0.646851 0.091923 0.667622 0.488241 0.0989326 0.0779382 0.288948 0.511928 0.103782 0.174715 0.10127 0.347352 0.129973 0.646851 0.103782 0.723507 0.115625 0.0989326 0.543895 0.46057 0.142821 0.214434 0.731648 0.724735 0.109939 0.129973 0.58017 0.511928 0.148901 0.176526 0.667622 0.488241 0.311423 0.399197 0.488241 0.781706 0.306453 0.531783 0.360012 0.0989326 0.0989326 0.557964 0.652741 0.0779382 0.481302 0.695937 0.823381 0.74517 0.262734 0.176526 0.0788486 0.360012 0.58017 0.46057 0.663687 0.0863829 0.285858 0.227704 0.803638 0.109939 0.646851 0.139181 0.828165 0.142821 0.288948 0.543895 0.176526 0.184332 0.227704 0.255368 0.695937 0.812727 0.259721 0.225806 0.802201 0.184332 0.233945 0.646851 0.544906 0.357275 0.58017 0.488241 0.781706 0.422896 0.357275 0.264653 0.822606 0.774006 0.139181 0.2268 0.340125 0.570965 0.148901 0.802201 0.118245 0.399197 0.511928 0.805214 0.663687 0.0813708 0.24144 0.736426 0.184332 0.426674 0.511928 0.329428 0.347352 0.347352 0.285858 0.118245 0.15552 0.544906 0.731648 0.695937 0.288948 0.185875 0.311423 0.357275 0.148901 0.0813708 0.399197 0.724735 0.262734 0.347352 0.225806 0.426674 0.255368 0.311423 0.399197 0.570965 0.667622 0.262734 0.115625 0.786592 0.142859 0.58017 0.214434 0.544906 0.789622 0.58017 0.184332 0.488241 0.667622 0.511928 0.15552 0.736426 0.74517 0.74517 0.184332 0.695937 0.329428 0.227704 0.724735 0.667622 0.46057 0.109939 0.570965 0.340125 0.731648 0.663687 0.488241 0.174715 0.172124 0.116913 0.142821 0.544906 0.481302 0.663687 0.633332 0.337987 0.822606 0.543895 0.118245 0.184332 0.214434 0.0779382 0.0863829 0.116913 0.544906 0.557964 0.0788486 0.103782 0.139181 0.652741 0.347352 0.543895 0.285858 0.340125 0.633332 0.544906 0.0738515 0.203114 0.337987 0.531783 0.652741 0.162493 0.422896 0.185875 0.24144 0.118245 0.233945 0.311423 0.633332 0.214434 0.413855 0.557964 0.290041 0.777768 0.0886341 0.511928 0.129973 0.337987 0.264653 0.176526 0.203114 0.115625 0.259721 0.285858 0.422896 0.225806 0.139181 0.786302 0.0738515 0.815305 0.329428 0.360012 0.115625 0.115625 0.148901 0.822606 0.360012 0.142859 0.0788486 0.821805 0.259721 0.646851 0.0813708 0.46057 0.142821 0.58017 0.426674 0.172124 0.736426 0.174715 0.804465 0.0886341 0.225806 0.58928 0.723507 0.422896 0.413855 0.0738515 0.184332 0.185875 0.091923 0.481302 0.306453 0.334908 0.115625 0.723507 0.2268 0.0886341 0.543895 0.667622 0.15552 0.652741 0.646851 0.736426 
</DataArray>
<DataArray type="Float64" Name="cell variable 8" format="ascii">