<VTKFile type="UnstructuredGrid" version="0.1">
<UnstructuredGrid>
<Piece  NumberOfPoints="    3384" NumberOfCells="    2492">
<Points>
<DataArray type="Float64" NumberOfComponents="3" format="ascii">
-42.4279 -32.8664 0 
6.32899 6.9308 0 
34.8518 -4.1001 0 
0.938192 -43.5703 0 
-18.6394 33.6059 0 
-46.9831 18.0105 0 
5.1645 -30.4632 0 
15.0232 -56.8102 0 
-36.7664 45.8379 0 
53.2426 -19.0639 0 
-44.1766 10.191 0 
32.4664 -15.7267 0 
-9.59858 28.3733 0 
4.67176 -44.9931 0 
48.1067 17.7098 0 
-7.41537 -28.9374 0 
-1.5884 -60.1971 0 
57.5748 5.59584 0 
-20.0469 -27.2066 0 
21.5062 -13.8644 0 
16.7597 41.7456 0 
30.5196 36.1893 0 
-35.385 -29.4276 0 
3.78075 0.912419 0 
-26.015 51.0414 0 
38.449 -6.90787 0 
-22.9774 -41.9674 0 
-19.2017 -38.5042 0 
-39.5509 10.5652 0 
-44.7271 -9.41853 0 
18.4209 34.1198 0 
31.3143 15.9791 0 
-28.126 -45.3726 0 
-23.3293 44.4166 0 
-20.1471 -9.49568 0 
-13.3962 60.585 0 
-10.1444 24.9567 0 
-6.28361 35.542 0 
24.5939 39.7076 0 
-6.40087 -46.7773 0 
27.7168 24.344 0 
-15.9238 -56.5499 0 
27.0293 -44.5821 0 
-30.3981 47.2677 0 
12.2312 34.0258 0 
46.7899 -14.4351 0 
-8.96922 -1.07521 0 
-19.2188 23.7757 0 
4.53156 15.5857 0 
-3.76834 -30.058 0 
29.6149 -24.9208 0 
17.5779 52.3761 0 
-17.3339 -6.68949 0 
32.4074 -29.4632 0 
-17.8171 -16.9594 0 
-30.98 4.60307 0 
-6.71294 -36.8052 0 
52.1324 28.8699 0 
-5.28297 57.4045 0 
12.1127 38.0616 0 
-18.7597 23.787 0 
39.0564 -27.172 0 
34.832 -34.8001 0 
28.2701 -18.4151 0 
-42.9117 23.0789 0 
6.17447 40.6247 0 
17.8326 22.1176 0 
-46.7221 -19.8566 0 
-52.8246 -32.0618 0 
8.97267 59.8987 0 
10.5053 -2.93063 0 
-38.5195 -28.3427 0 
30.6724 43.1166 0 
-22.3423 51.3587 0 
-12.8733 60.1729 0 
-33.553 -13.9666 0 
16.8156 -18.9712 0 
-31.7137 32.7509 0 
18.2439 -32.9507 0 
0.6388 54.8739 0 
-51.3426 -4.97036 0 
22.6448 -27.3474 0 
-7.54513 -8.0106 0 
34.5027 48.6541 0 
38.8629 19.6978 0 
59.925 -6.75882 0 
-49.4962 -11.2426 0 
-0.806231 41.3691 0 
27.425 56.6214 0 
-28.8737 42.7238 0 
1.57214 -35.0595 0 
-20.6436 -20.5258 0 
17.7804 23.1256 0 
-49.3152 -25.5326 0 
22.1302 -27.8728 0 
27.5797 -50.1509 0 
21.4541 -1.70097 0 
-14.9636 28.9747 0 
-12.4918 53.6505 0 
8.73687 -25.8461 0 
-18.6491 -56.869 0 
-36.9545 15.9123 0 
36.0553 9.65093 0 
-46.8476 5.23939 0 
45.702 -13.4328 0 
-10.1228 -1.17753 0 
-45.616 -3.51857 0 
22.0971 -2.00763 0 
-55.3361 23.3573 0 
-38.4179 6.29869 0 
56.4895 15.1401 0 
-12.7155 9.31075 0 
-21.0946 -37.891 0 
18.6793 28.8018 0 
34.2716 -13.879 0 
55.3156 3.08297 0 
-23.2377 -20.7913 0 
31.1413 51.0139 0 
36.2043 -38.7228 0 
28.3309 -3.57483 0 
23.0452 6.1667 0 
-19.3225 58.5843 0 
-3.86063 60.761 0 
30.1079 51.5965 0 
-23.6168 57.3592 0 
-30.5375 34.8552 0 
-10.7973 -15.7623 0 
32.7247 -29.2193 0 
22.7416 41.7867 0 
60.9701 0.0253103 0 
6.21385 52.6326 0 
-16.0884 -1.89239 0 
-32.5921 -24.3215 0 
-9.56361 -12.8644 0 
49.4288 28.843 0 
-54.9084 -19.6167 0 
24.4977 -4.12884 0 
9.64691 59.1617 0 
-35.4555 -5.52986 0 
-19.0016 33.1662 0 
-57.9079 -24.5307 0 
15.8062 53.7795 0 
57.0118 -24.6154 0 
-4.0547 11.417 0 
37.166 34.4026 0 
2.80081 23.7248 0 
14.1536 29.391 0 
16.9768 57.1587 0 
31.2858 16.5207 0 
9.79346 30.865 0 
-49.56 17.4779 0 
0.775246 61.6216 0 
45.9555 24.5874 0 
35.0163 -47.8324 0 
1.38752 54.0975 0 
12.1934 -46.6843 0 
6.73168 14.9246 0 
14.4645 9.22489 0 
-42.2865 -8.11347 0 
-2.51326 -53.3126 0 
-60.3879 4.56836 0 
-10.3417 -10.8466 0 
35.9727 44.8182 0 
-33.9297 27.635 0 
-41.0692 -23.549 0 
44.9688 -30.8041 0 
19.2809 24.1625 0 
-53.9043 -28.6158 0 
-31.6324 -36.0493 0 
-12.7897 -18.7986 0 
40.586 15.7023 0 
-11.8929 40.2655 0 
-26.2145 11.0795 0 
38.4852 10.3443 0 
11.2679 55.0857 0 
-21.63 29.5083 0 
-10.118 19.0307 0 
-52.6576 -32.4246 0 
17.9539 21.8101 0 
10.372 -5.82478 0 
41.208 30.0662 0 
-30.2195 -15.1282 0 
-34.0126 16.3836 0 
-2.58921 -37.2842 0 
-32.1637 37.0667 0 
34.2844 -20.1852 0 
36.2165 -29.8907 0 
7.90671 21.6649 0 
-25.9428 35.9049 0 
-20.2715 -8.88739 0 
35.6387 0.529512 0 
51.6172 3.10529 0 
54.3522 -27.7604 0 
-16.2277 -51.4497 0 
41.4856 28.7025 0 
-60.3777 -0.610571 0 
30.7918 26.6125 0 
-14.0146 8.3763 0 
40.1342 -14.3403 0 
-39.5467 32.5669 0 
33.5186 -18.5808 0 
-50.2341 30.3381 0 
-11.4823 8.42493 0 
-16.1149 33.8282 0 
-9.26356 -22.5419 0 
-18.527 59.1138 0 
18.433 46.7799 0 
-9.95493 26.3235 0 
-1.55381 -3.92392 0 
-26.9981 14.0144 0 
16.1395 -41.6675 0 
38.2462 10.2657 0 
34.2737 26.3031 0 
0.473456 35.2685 0 
-21.9068 51.4311 0 
-16.3255 -34.0405 0 
43.2914 -25.4606 0 
52.0624 27.5777 0 
12.6299 46.2694 0 
55.383 -10.9747 0 
-10.5917 14.1079 0 
-19.1632 2.63999 0 
27.3978 -35.0671 0 
-53.5257 -20.8938 0 
9.2489 18.9418 0 
-59.319 -10.507 0 
-47.3781 -40.3434 0 
-2.74997 37.7389 0 
31.5465 -23.7782 0 
29.2676 -31.1617 0 
-38.8523 -17.8327 0 
11.7168 -1.80696 0 
-47.7416 2.39939 0 
-26.1967 54.6435 0 
2.22993 61.5348 0 
14.7055 -28.3482 0 
-35.249 -8.24302 0 
-7.04535 4.44558 0 
-17.7868 8.17912 0 
-15.0161 -12.5823 0 
21.7746 -40.3549 0 
-6.27896 -46.3519 0 
-21.3949 37.3955 0 
-28.2339 -1.33744 0 
16.0238 -8.3659 0 
3.66027 60.7683 0 
1.75417 9.91218 0 
-3.32871 -15.6596 0 
-52.0692 32.3168 0 
52.0326 4.22181 0 
50.5034 -4.51122 0 
34.6486 28.7554 0 
-40.5923 -43.9388 0 
57.8782 12.0672 0 
5.05891 -14.5102 0 
27.4327 -27.5919 0 
-20.6769 -4.74581 0 
7.43867 -22.9853 0 
19.5249 -2.20867 0 
10.9745 -36.3407 0 
-47.4277 40.5085 0 
25.2276 -53.1513 0 
-19.2633 11.5851 0 
30.2276 -24.1438 0 
9.62049 -50.812 0 
33.6438 23.3283 0 
-53.7432 6.19591 0 
0.626837 31.1927 0 
37.1763 -36.7546 0 
37.5018 24.0064 0 
-49.8941 -18.5112 0 
24.353 33.7696 0 
-17.064 -27.784 0 
-45.4085 -31.5673 0 
8.13849 47.5854 0 
14.9872 -49.302 0 
-12.8198 53.2308 0 
-18.1358 14.5582 0 
-13.9109 -29.417 0 
-49.1017 -24.9816 0 
58.1922 -7.32183 0 
-25.5049 -0.164694 0 
-51.2038 -25.1246 0 
26.7735 23.627 0 
19.267 -54.1915 0 
-40.7436 21.5169 0 
-39.9321 10.6514 0 
18.3003 -45.3113 0 
53.2075 -19.8886 0 
28.7183 4.28189 0 
-21.7605 -8.60946 0 
-54.5308 -2.57553 0 
-2.53377 12.103 0 
-37.7081 -17.8124 0 
46.8804 14.8484 0 
30.0063 -6.14946 0 
23.6277 51.0342 0 
-1.70599 18.545 0 
-41.5681 -13.3775 0 
-3.64165 -20.3485 0 
46.2433 -1.97374 0 
61.1967 -14.775 0 
38.2353 -9.19092 0 
-4.65984 31.6753 0 
2.87968 29.7953 0 
-48.5389 38.147 0 
-28.9696 43.2204 0 
-42.9497 33.2218 0 
24.0129 15.642 0 
15.041 17.6208 0 
-57.7999 13.0509 0 
56.4486 21.3298 0 
-2.78809 47.12 0 
-29.2534 -25.0095 0 
-51.2948 9.09387 0 
51.4673 -8.4775 0 
6.71631 -53.9692 0 
-14.5384 44.0617 0 
-55.2049 -13.2801 0 
41.4878 -37.8042 0 
-40.861 -43.5867 0 
-10.8202 54.7727 0 
-47.6211 28.7188 0 
-58.6029 17.5041 0 
32.6731 21.7602 0 
-47.4457 -29.0679 0 
38.4443 -7.23091 0 
-39.2265 -39.9061 0 
51.444 -26.4231 0 
-16.8319 -0.600283 0 
11.3479 -7.17055 0 
-49.298 -36.0126 0 
-25.9467 -20.637 0 
41.7392 5.75284 0 
51.2755 19.385 0 
-17.6318 59.8263 0 
45.2892 -39.3749 0 
-30.6964 19.0397 0 
-27.7101 -3.75818 0 
23.6572 -36.9748 0 
-28.8355 17.4583 0 
-40.689 39.8611 0 
14.4073 -26.0507 0 
47.9385 17.4468 0 
-32.9872 -32.3279 0 
-11.9324 36.6252 0 
-1.55872 11.8215 0 
-35.9329 -4.41988 0 
-6.93311 3.66492 0 
-12.7482 -32.4361 0 
-19.6075 23.296 0 
-8.84908 -22.6916 0 
54.1001 -30.1251 0 
-33.381 -41.1894 0 
-40.1325 32.0182 0 
-13.3799 22.5937 0 
-27.1638 15.0061 0 
46.78 32.9641 0 
-53.9677 23.4626 0 
-24.4518 28.9668 0 
16.4226 -56.5355 0 
-38.8128 43.0654 0 
-28.5587 24.9166 0 
-36.8097 35.8367 0 
-24.3912 -28.6142 0 
-31.0181 -31.2065 0 
-60.9773 -13.44 0 
29.0715 18.1367 0 
32.7503 11.6573 0 
-0.182921 -0.448372 0 
57.7907 -23.4829 0 
-12.5888 -30.9086 0 
-39.6776 -0.483471 0 
13.1903 34.7222 0 
2.19841 -12.3156 0 
-46.86 -19.0827 0 
20.4533 -23.345 0 
0.154928 -22.292 0 
-7.78645 6.88802 0 
-25.9454 -47.0839 0 
-37.9634 5.18522 0 
-16.8283 15.8803 0 
61.5432 -9.76351 0 
-16.8534 -42.1736 0 
-42.5852 22.9118 0 
-5.95849 -58.9575 0 
39.5911 40.5046 0 
-27.2068 -51.6343 0 
-5.84448 20.9298 0 
25.6319 45.9707 0 
34.6846 -9.88044 0 
-4.26339 2.71356 0 
12.1271 -41.5449 0 
46.8082 -29.1739 0 
45.3578 -30.0082 0 
-23.8297 1.07289 0 
-30.4415 -15.5478 0 
45.4141 37.5126 0 
-52.3809 -9.39768 0 
-3.17754 46.8804 0 
23.1912 -16.4508 0 
-53.6035 30.6627 0 
28.6546 -12.999 0 
-14.2484 -46.5593 0 
-34.5873 28.7884 0 
-30.4377 -0.0471251 0 
-10.6649 -43.1279 0 
-14.5045 8.29387 0 
20.2768 51.9066 0 
6.99579 13.8921 0 
4.51006 40.1486 0 
-50.9156 22.9457 0 
17.7705 11.5292 0 
-41.0316 -1.23553 0 
-22.0656 -31.9131 0 
38.4059 -34.7284 0 
-23.2342 -54.4728 0 
-44.1019 -25.8037 0 
-27.2797 -4.65048 0 
22.792 -20.1156 0 
20.1702 32.0651 0 
41.2054 30.2228 0 
-25.3739 -21.1554 0 
38.9252 -16.6736 0 
25.8399 11.2027 0 
24.9004 38.9997 0 
-42.8058 38.0432 0 
15.7389 41.9316 0 
-22.5477 18.7252 0 
4.76265 9.69608 0 
11.1383 -17.9174 0 
31.5422 -43.0571 0 
-26.789 9.03212 0 
34.1573 33.295 0 
-12.7306 -0.941767 0 
-35.6964 -4.99915 0 
-26.2051 -24.7948 0 
42.0377 -38.9517 0 
-13.0351 19.8623 0 
-11.3336 48.0905 0 
-18.385 42.65 0 
46.9906 -18.3679 0 
16.4168 -32.8611 0 
26.806 4.51909 0 
-6.62832 -49.603 0 
-15.1707 -12.9365 0 
-40.2669 -15.5486 0 
-32.0578 -32.016 0 
-47.7424 -12.6317 0 
1.84138 -54.4492 0 
-6.80282 -50.2079 0 
29.1189 -4.34378 0 
61.5235 -13.1693 0 
-61.0039 -12.916 0 
-7.73612 -28.7489 0 
10.5749 -57.6231 0 
-23.2471 -33.3815 0 
-51.1082 15.0398 0 
-5.38114 55.67 0 
12.0622 5.84757 0 
-29.0787 24.5209 0 
-32.8433 -33.2212 0 
21.8833 25.9592 0 
30.9417 43.8403 0 
5.7864 49.2778 0 
7.30111 -14.671 0 
-22.2208 28.8994 0 
-42.7945 -12.2291 0 
10.3847 -36.7869 0 
22.7206 -43.2184 0 
-31.53 -35.9624 0 
4.14386 -31.5568 0 
-23.993 -36.064 0 
-19.8847 53.0769 0 
-7.82951 -35.8594 0 
46.0833 -9.99188 0 
0.360648 -13.2208 0 
23.3463 -15.9983 0 
-2.11514 42.6151 0 
44.6963 -12.3714 0 
8.04107 21.5107 0 
-20.5125 -47.7144 0 
8.2361 -12.5159 0 
-6.40245 -4.05169 0 
18.2415 59.5463 0 
-4.98249 -3.90286 0 
-57.7287 8.18024 0 
17.3338 -5.42282 0 
2.96431 -8.34995 0 
3.46172 45.4122 0 
13.3215 0.864233 0 
-59.5045 -2.59457 0 
-2.79104 20.1102 0 
[...]
<CellData Scalars="wall variable 0">
<DataArray type="Float64" Name="wall length" format="ascii">
3.01413 6.38487 4.22563 1.24617 3.2799 0.967792 3.96965 0.604478 5.39202 2.74763 7.67481 4.12016 4.63354 1.35624 4.47806 3.74999 1.19148 7.40287 2.45887 1.89346 4.60398 1.81256 1.63082 2.62157 1.79384 3.96437 1.03034 1.0138 0.507708 8.03491 3.96437 3.87823 2.96323 6.62992 0.586308 3.81474 3.54029 3.47239 1.76417 0.411465 8.36426 5.4757 1.30539 4.9903 5.61942 3.61126 5.2958 3.87699 3.68282 1.95881 0.9237 5.11258 0.534483 4.78898 0.650229 6.7068 1.43502 2.67951 3.90335 0.889999 2.07167 0.803113 7.43916 4.37159 0.889999 3.21798 2.60347 5.6674 1.07698 5.28314 2.47353 5.33934 2.31507 3.84367 2.77963 2.84548 1.18025 3.43532 2.93578 5.50593 2.42342 5.51167 3.47079 4.17463 1.21514 2.23189 0.966901 4.89862 2.31164 7.14731 1.73718 2.47181 1.44186 1.55403 2.95358 6.81272 2.89991 2.89627 1.58341 3.81765 1.13728 5.62119 0.323103 2.66519 4.29805 1.35294 2.75664 7.40287 2.68897 2.28368 1.75668 4.07258 7.22893 1.41624 2.10864 2.50305 7.36352 0.677084 10.1434 0.735571 5.60951 2.45887 2.75664 1.41553 7.10748 2.13202 6.01865 3.886 2.47514 4.32948 1.34374 2.61213 8.54643 2.03292 2.06418 9.18082 2.97053 1.65131 5.21924 0.581075 2.45562 1.21721 0.94462 7.54984 0.493768 4.66635 4.0473 4.3007 8.89099 1.56063 4.90695 0.79709 2.43565 1.86284 6.44482 3.84898 0.672398 3.32403 1.63472 2.306 4.76704 5.71706 6.6204 2.86394 3.92028 1.34579 0.525644 6.91683 0.604478 3.4579 0.387235 1.24617 4.25575 2.47283 7.12854 1.98805 3.79524 2.0197 0.165979 4.483 5.46783 1.34209 9.44743 1.46692 1.95311 6.63907 2.44979 0.78395 2.44315 2.4119 1.51231 0.862037 0.971353 6.91753 2.10864 0.250258 4.6078 1.9066 1.80811 0.209775 1.46939 6.90433 0.392421 0.480762 3.76596 5.51432 3.33989 2.25749 7.62212 3.23242 4.58235 0.480981 7.98883 0.483168 5.34859 2.03241 2.1841 1.86092 0.730498 3.90021 6.97995 0.493202 5.83228 0.168475 0.798292 2.63789 4.89862 6.47294 1.7709 5.36629 1.21514 7.26087 3.36909 4.80112 4.77553 1.13087 4.68544 3.45597 6.20452 3.886 2.87457 7.36113 0.348953 0.467338 4.0597 4.61022 0.897414 1.64525 4.24553 4.15026 2.12853 0.897414 1.01027 3.61126 3.74329 0.777397 3.7715 1.7123 1.98816 6.30648 4.4043 0.593132 4.30098 1.04449 8.13107 2.86473 4.66256 1.19666 2.81751 5.07788 0.713277 3.88322 3.20803 2.76773 7.09713 0.818051 4.97898 0.689102 5.2842 0.165979 8.8864 0.186744 7.75545 1.7123 4.24725 0.893636 2.92482 2.14338 3.48315 8.63328 2.12586 3.45687 3.39522 0.968198 3.35206 8.43147 8.5088 1.27673 0.489269 0.454713 7.43916 2.02972 2.0197 2.28841 3.55479 0.111617 5.13991 1.24931 4.94697 1.08055 8.35838 1.00217 5.02428 1.73718 1.15372 2.74986 1.86172 5.68346 2.28928 1.60622 2.14132 0.584085 5.18851 3.79171 1.93462 4.3007 0.49203 3.22596 2.6148 0.852612 5.18422 4.95121 2.62939 2.81256 4.8599 1.51231 8.03737 0.316372 6.22515 1.85287 1.50343 0.361787 1.98816 7.75545 4.9903 2.26482 0.544339 4.66237 6.68651 0.860122 2.56263 6.24205 3.19103 1.50547 1.54513 3.13533 0.436131 6.0999 3.10782 2.72077 0.590134 1.58561 3.19103 2.64947 1.75668 2.29194 0.760392 1.82157 4.18283 0.961494 7.99289 4.4043 0.896846 3.23417 3.21485 5.14719 2.0665 9.13352 2.44979 0.833276 1.34 4.89033 2.19582 4.9122 3.87462 2.83157 2.03554 3.79473 0.40919 1.22401 3.33592 4.24625 0.870963 1.72098 6.62477 1.03265 6.3507 2.84548 3.14012 2.66234 0.940312 3.14064 9.0814 1.79373 4.68419 4.45889 0.829786 0.403537 3.62071 6.15709 3.09349 8.84494 0.619372 7.3467 8.3988 1.04402 3.34144 1.292 6.93054 0.772913 0.577565 1.82157 3.85617 3.63455 0.965645 2.306 5.16233 5.09983 1.0422 2.97267 2.72077 3.24463 5.08308 7.54919 3.81622 3.19659 3.18276 3.05853 0.349567 0.57722 1.49082 4.85503 3.60781 2.28928 2.12119 3.09901 0.347007 3.3706 3.36918 2.21745 6.46697 0.680343 4.71941 3.41655 0.997528 6.35392 1.27519 2.2679 2.52427 6.02973 0.347007 8.86558 0.572215 2.48051 0.809072 7.24916 2.03347 4.63502 6.30648 0.361787 3.67887 1.46166 0.50201 1.54879 4.52009 0.552191 3.74934 0.929813 7.93575 0.798292 8.05093 0.467338 6.42261 3.11576 3.23447 1.61969 2.165 0.84754 2.83157 0.535342 2.69437 5.53318 2.03554 0.84754 2.33594 1.67219 3.59677 1.10758 6.2537 1.03034 6.62992 0.618697 2.31185 2.05344 2.494 2.15794 5.11795 2.29871 2.4933 4.03556 5.61433 0.123652 1.10758 1.95739 2.31507 0.64697 3.35206 3.45359 7.34378 1.79384 5.24175 2.52238 0.813467 1.54879 0.253214 3.87823 4.66237 8.5955 0.743451 5.55519 1.69716 1.80447 2.44315 7.95525 0.940312 9.08392 0.18156 7.37635 0.798113 3.84405 2.28193 4.37848 2.6733 6.60151 1.19666 2.29929 5.83228 5.21407 4.20633 1.87246 6.50017 3.09607 2.3231 3.95931 4.03556 2.46216 1.12931 10.2062 3.99641 3.14824 1.45491 2.14338 7.04368 6.35392 1.15814 8.2322 1.6129 3.3365 0.442539 3.3706 2.03347 3.74216 4.03864 0.50201 2.88897 3.07425 0.37915 3.01413 6.81593 4.67783 3.65341 4.78519 1.09353 2.12359 0.505654 2.3044 7.36113 3.03064 3.59921 3.57962 0.360832 6.94031 2.71097 3.49096 4.16973 0.36798 0.336809 9.70286 2.74986 3.22718 2.28193 2.56939 3.84843 2.77888 0.382992 2.41525 3.09064 1.76417 2.15381 1.16897 8.00379 1.65076 2.25883 0.802354 1.16745 0.498697 3.74934 7.4898 0.49125 8.42858 3.2011 2.57373 4.41469 4.63146 1.99511 0.480762 3.94804 0.333988 5.88782 0.447688 6.52259 1.03813 3.57305 3.88322 3.85645 1.26049 5.6674 0.676902 4.9044 4.63146 0.515127 0.37108 8.66826 3.67887 1.50343 8.2073 0.262468 8.8864 1.46692 0.888502 3.02302 1.78949 4.32948 1.3552 2.26482 1.30539 1.62136 2.37182 2.64947 6.24205 3.57719 1.72098 0.992339 2.47283 2.02972 0.803113 6.22712 0.63685 10.1699 2.14409 6.2081 2.63503 1.18822 4.33956 4.80454 0.427379 2.21151 6.77897 0.801883 5.95626 0.798113 1.52219 2.58647 3.04175 2.73656 0.406738 1.27802 0.562149 2.32556 3.36909 2.12246 2.26539 8.29208 3.33201 6.83741 1.79239 4.425 2.70294 2.85276 4.31266 3.49564 3.54676 4.24553 2.18417 7.10648 1.15032 3.97882 2.02391 4.13324 3.68063 3.38623 6.83356 1.60622 4.0473 1.47133 7.84446 2.31539 6.50017 2.94621 2.37444 3.6146 0.971353 3.19639 1.32989 6.21924 0.693699 10.4777 0.501772 2.53428 3.17774 6.54597 3.6544 6.58846 2.1841 8.03088 5.30826 1.89732 2.96866 1.24379 10.1699 9.8704 8.56851 2.8371 1.77551 4.13859 5.11258 4.29741 6.01786 2.12397 4.50881 4.71941 0.579763 1.67355 8.63328 1.45491 7.52925 5.21924 4.05061 0.316372 0.186744 3.05678 3.63633 0.801883 1.229 3.3424 4.89033 3.47201 0.493184 8.61655 2.88897 1.46166 8.66826 6.2081 0.839805 5.34859 1.26188 4.21626 0.838826 0.726438 2.40054 1.97595 4.31266 2.43003 8.2322 3.04415 1.03813 2.74798 2.93695 1.2534 6.80438 1.01166 2.18417 3.18541 1.49472 3.36918 0.442539 8.61655 2.02104 1.02468 7.02831 1.22793 3.15137 2.70345 1.5196 0.343976 0.617228 2.21745 2.95713 5.45525 6.93054 1.33369 7.22393 1.89732 3.72094 4.80454 0.530362 1.76199 10.3377 0.337075 2.37444 2.4959 4.84161 3.67333 4.95121 2.97848 1.51893 1.66001 1.18822 6.3922 6.11966 0.174204 0.859397 2.66408 3.72803 0.726438 2.97092 2.70294 4.19359 8.21947 0.771141 8.93979 1.229 1.27802 8.29988 1.49756 0.598151 7.07614 1.51893 2.51924 1.79239 3.44691 2.23189 2.12755 1.61875 4.45332 5.15939 0.343976 7.76074 0.525644 9.36508 1.24931 1.61483 6.01108 3.21485 0.925351 0.253214 7.93575 8.3799 0.618697 2.96323 3.64628 0.573082 3.09547 3.23665 0.360832 1.45829 4.11781 0.37113 1.35624 1.51196 4.39544 0.515404 1.22353 2.45113 4.10353 1.13499 2.27365 4.11911 2.6146 0.638737 3.45359 1.27673 4.05599 1.11945 0.801346 2.81156 0.967792 2.56098 3.03064 0.336964 4.86175 0.209775 7.18923 2.28841 3.79524 1.70294 1.57405 3.19639 3.92911 6.18424 0.835162 2.12397 3.48315 4.96752 0.61342 8.06011 0.562149 0.61655 2.79963 4.17933 0.427507 3.72786 2.98305 5.85474 5.10912 2.43046 0.490435 7.21603 3.07595 1.55459 0.677084 5.22127 0.626144 0.295431 9.27897 5.00292 2.4358 2.75394 0.626144 0.395317 7.37619 2.67951 0.742532 2.63865 2.31164 2.63789 0.296697 2.69565 1.87588 1.07164 4.47806 0.37113 3.48684 2.75969 3.66508 6.62477 3.57719 2.63864 1.001 6.73603 3.11576 2.61043 0.294499 7.03641 3.6146 0.337075 3.02566 0.7707 2.50305 6.91753 2.05877 5.61942 0.860122 0.700314 3.19684 2.94621 1.87246 2.98063 5.8709 5.14903 2.16118 2.84046 1.83013 5.00158 2.59124 3.85551 1.27519 3.3365 0.631113 9.15731 0.579763 0.680343 6.17101 1.5555 2.19582 2.68689 0.802354 7.43016 0.52551 1.13728 2.47865 1.66436 6.42177 2.61201 3.34298 3.84741 0.436131 2.37182 8.66511 0.330753 3.6444 10.1434 1.55459 2.30194 2.06414 2.76773 1.66144 0.247709 1.76199 2.21312 4.29741 0.9237 0.563946 9.27897 1.65076 0.453953 6.57172 0.618368 5.66749 0.679206 5.50522 1.52712 6.68299 0.427507 1.29899 0.910591 4.68544 3.10131 0.980416 2.74079 0.186579 1.61483 5.13991 1.99209 6.97995 2.4959 6.21924 0.802533 6.51667 2.55127 0.352585 0.501772 4.50183 1.56063 3.96265 1.52219 7.37635 4.24725 3.7715 2.82729 4.35988 0.41913 2.47353 2.53618 3.23242 3.1564 0.349567 9.73859 0.935093 4.21765 0.623009 2.0665 3.3424 8.93979 1.39361 0.573082 4.54031 6.40398 9.47039 3.18541 4.13324 3.84407 1.44186 6.06743 2.31463 4.7319 2.52238 4.73819 2.28717 4.03937 2.43417 4.21765 3.19653 1.18025 6.3507 1.57405 9.69711 0.79709 0.598405 7.55662 0.802533 1.32989 1.16897 7.34372 1.37223 3.41655 4.50881 0.835162 0.784188 1.89426 3.68063 4.66635 2.61843 5.79977 4.14828 5.53318 0.991101 1.47302 3.45597 0.910591 6.87293 6.70832 2.55075 3.32403 2.96214 5.91912 3.22596 1.62507 3.86192 5.08249 2.88139 1.0422 3.20859 4.56073 2.73877 5.99127 1.71483 1.63082 0.900396 3.24463 3.10782 3.2326 3.19886 1.2435 1.61875 2.35753 0.724784 5.00158 1.24246 3.60134 4.86175 2.42669 8.70243 3.54503 3.87018 0.870349 4.10359 7.07163 0.623009 2.43417 1.03265 7.95525 0.78395 9.13352 4.61872 3.18276 3.47311 1.86579 4.39234 0.194954 1.18559 1.22577 7.04368 2.92482 5.91771 1.35453 0.577565 7.30664 2.73541 2.89738 4.18283 0.346028 9.70286 2.73955 3.38623 1.89426 2.09877 2.4933 7.30768 1.66443 4.75351 0.784512 2.46216 4.07205 6.55731 3.18719 2.73541 1.8563 2.94219 1.16745 6.42177 3.45362 6.70832 3.02302 4.00376 0.862037 4.8599 5.93788 2.75969 3.78398 4.10353 2.01264 6.56581 1.10379 1.52946 7.22893 2.77083 3.3178 4.97898 1.87651 4.99458 0.499127 3.09349 0.356429 8.42858 3.94804 0.392421 3.50505 3.15137 5.12746 1.52712 7.34988 1.61058 2.26474 1.29848 4.20744 0.590134 7.54919 0.841305 0.724822 1.61058 2.26628 5.87038 2.61167 3.54029 0.455235 4.07205 0.85327 5.16226 1.292 4.09333 6.17101 6.46697 0.617228 3.69183 9.73859 3.05853 4.61872 0.111617 7.76599 2.02104 5.15939 0.297548 2.6733 0.493202 1.99209 1.30468 6.77897 6.11804 4.02285 0.295431 5.22127 7.36352 0.7707 9.78296 1.66144 1.51365 3.04175 4.12001 1.86284 1.65738 1.87903 6.37139 3.6815 1.79373 2.78346 1.79393 6.58275 1.87862 0.598405 4.90695 4.50183 10.4777 3.79953 5.16226 2.12233 2.95713 0.997528 1.37223 3.09064 7.28348 3.87018 3.46004 0.411465 0.336964 6.94031 3.23665 4.17955 0.68658 2.42669 1.44036 8.70243 0.68658 3.22397 0.619372 6.69469 1.63472 2.55075 3.45362 1.66436 4.56698 5.16233 0.37915 2.32628 3.46832 3.34298 2.45353 6.38487 3.79473 6.2537 0.123652 0.888824 3.90026 2.68689 2.31463 2.57037 1.48841 1.24246 1.44036 0.986533 1.45401 5.19007 3.66857 6.38781 3.41342 0.650229 1.77934 0.665173 3.33592 8.69332 2.73656 1.51365 3.21774 3.2326 1.83013 1.6129 2.43003 2.85276 1.64525 3.68282 1.07313 0.992339 0.870963 5.56503 1.87903 3.07242 7.12854 2.95358 6.27207 0.665173 2.49175 2.53428 0.352585 0.18156 2.47597 1.13137 6.80111 3.47201 1.34 5.55437 0.216298 1.34209 0.888824 5.61433 3.95931 2.0718 6.93429 1.52684 5.83356 3.70575 0.553976 9.96235 0.439426 7.54984 0.770093 4.85503 5.97873 0.593132 5.14719 6.01108 0.186579 3.62735 2.00483 1.49082 9.49973 0.374127 4.60436 5.97873 0.387235 8.57387 0.801346 0.796074 6.81593 3.2799 3.20803 3.57305 3.04415 1.7555 2.09513 0.250258 1.41624 3.6444 0.933499 2.05344 3.07666 3.84898 0.400422 5.51167 0.760392 9.80734 0.535342 3.87462 4.75599 3.85617 3.00656 0.333988 5.12746 1.22793 1.49092 1.52684 0.169796 2.43046 0.309934 4.15026 3.54676 5.31069 1.08462 4.45889 2.75785 3.14064 1.08462 1.13937 3.18591 4.41469 7.67343 0.594896 2.39437 7.92479 0.689102 3.3178 1.3212 0.572215 5.07917 2.60347 3.54163 0.395317 5.63539 0.629391 1.21562 6.09454 0.676902 0.463258 3.97882 2.86701 1.07698 2.18033 6.38781 4.20759 6.97882 0.330753 0.341087 5.21407 1.56988 1.08055 4.91881 3.86192 4.02747 1.26188 0.483168 4.29012 2.26902 1.75119 5.14903 2.98011 1.54513 8.51422 2.61043 6.42261 0.348953 2.3044 10.8811 2.494 0.933499 2.42342 4.77553 0.210872 8.24709 1.14717 3.96821 4.10138 2.10965 0.679206 5.79822 2.35753 7.76074 1.5196 4.35153 1.46939 1.88629 0.57722 3.1564 7.62212 1.61228 9.49973 2.39437 2.05796 2.12119 5.68346 7.03923 0.891165 3.37176 6.22515 4.05061 1.65131 0.439426 4.60436 1.2534 3.02689 2.96866 7.22393 3.52865 1.58152 2.42803 0.251285 2.26539 5.34607 1.86425 0.840387 6.3922 1.45829 3.57962 3.39666 3.15673 1.51196 8.02227 3.90021 3.23447 6.73603 0.797548 3.62735 2.74079 0.11007 9.60231 1.13937 5.31069 3.49564 1.97595 1.10379 7.17671 1.41124 4.9134 3.0458 2.69565 2.15381 3.47239 2.61167 3.79953 7.34372 2.26474 0.724822 4.51849 0.507708 3.29899 5.79992 0.455235 3.81474 6.29971 2.23358 6.55731 0.772913 5.45525 2.12233 0.85327 1.8563 7.30664 4.20744 3.52969 3.72786 6.68299 1.55403 3.84407 2.02391 0.463258 3.66857 6.27207 7.24916 7.79423 0.673169 3.74216 1.03279 6.67961 2.7667 1.70307 6.56162 0.247709 9.78296 3.02566 10.3377 0.602513 5.07788 2.11726 3.19886 1.07313 3.87699 4.75351 5.48599 2.39864 5.58187 2.59124 0.724784 1.88629 5.51432 2.1185 6.72655 2.63864 6.22712 2.07167 4.37159 1.26049 2.09608 1.79781 7.34378 0.638737 1.91838 5.00292 0.563946 1.95881 2.12755 7.14731 2.63865 7.08887 3.85551 6.72655 0.570489 1.21562 3.04076 2.2679 5.66903 7.09291 1.67219 3.12661 0.297548 4.45332 1.2435 2.11726 2.81751 6.60151 0.628079 1.91126 5.11795 3.59677 7.09291 1.34579 0.484213 4.20759 4.94697 9.36508 1.9066 6.95669 0.814475 0.530362 4.33956 1.30468 2.89372 2.97053 6.51934 1.41316 0.71397 6.40398 1.07386 1.62661 4.17933 5.35039 1.61969 4.14828 1.29899 1.15814 6.02973 2.84571 1.66377 3.33201 2.97092 0.838826 0.863372 0.598151 7.08887 0.742532 1.43502 0.454713 10.009 5.36629 6.17389 5.63539 0.296697 3.20859 5.09983 4.56698 2.47865 3.81765 5.21315 0.980416 1.94294 2.16118 1.75119 1.51491 2.26628 7.34988 4.05599 8.5088 1.29513 0.194954 3.96743 2.8371 3.08242 3.47079 0.400422 4.76704 0.965645 2.8774 1.86425 1.57962 3.54163 3.21798 3.90335 7.37619 5.77121 4.99458 3.8729 8.39949 2.40054 8.21947 1.02458 0.763178 8.39949 0.988808 0.11007 2.63503 4.21626 4.02747 1.62507 0.49203 3.67333 2.15794 8.24709 1.90099 2.56893 3.29899 1.0138 1.01027 4.61022 2.04817 2.86473 0.602513 5.2958 1.55995 2.14132 6.83356 2.73955 0.336809 9.0548 3.88422 6.6936 0.584085 1.55995 2.81127 2.12359 2.75394 5.61963 0.747115 1.41553 1.35294 4.39599 0.490435 0.988808 3.8729 1.87651 0.49125 3.18591 9.60231 2.12853 2.75785 4.68419 3.6815 0.889082 4.78519 2.87457 3.61723 6.55557 0.986533 6.69469 3.34144 6.51667 7.55662 1.87862 0.693699 1.35196 3.48778 3.4579 3.96965 2.81156 8.57387 3.65341 5.07737 2.57037 4.03937 1.90415 0.411796 7.28121 4.39544 3.15673 3.16723 2.74763 4.7319 5.19007 2.11167 4.52009 0.813467 5.10241 2.7667 1.75668 2.12586 1.67355 9.15731 2.31185 8.3799 0.929813 0.498697 2.94219 6.87293 0.672398 3.07666 0.515127 5.88782 3.00656 3.87426 1.001 2.09608 1.7555 6.80438 3.52865 1.33369 0.814475 3.83227 2.45113 5.88677 2.71097 0.346028 0.477878 2.29564 2.01264 0.32904 4.03632 0.829786 4.38091 2.6148 5.91912 8.3988 2.0952 9.47039 0.71397 3.32964 4.78898 4.50869 3.17774 2.49175 1.77934 1.49472 6.06743 2.47181 5.02428 3.60781 0.700314 6.68651 1.69716 3.54063 3.14012 2.77963 2.45552 6.10545 5.55437 0.833276 6.63907 2.86701 1.15032 4.03224 4.58235 2.53618 5.28314 2.62157 1.71483 1.59317 4.73819 5.24175 4.9044 6.09454 0.570489 2.1185 3.76596 1.99511 2.77083 4.07258 7.99289 0.93055 2.48051 1.3212 0.669763 2.30194 3.07595 1.62461 2.66519 1.19148 2.73861 6.6204 4.17463 1.57962 5.34607 2.12246 7.26087 4.67783 0.796074 1.11945 3.60134 1.48841 5.07737 0.534483 4.13859 0.600352 1.35196 6.54597 4.50869 2.51924 2.97848 5.18422 1.71752 1.02458 4.19359 4.425 2.79963 0.46762 3.12661 2.33594 2.165 5.35039 4.38091 8.84494 0.499127 5.77121 0.763178 1.71752 0.852612 0.925351 3.23417 1.04626 0.411796 5.39202 6.91683 1.79781 6.7068 3.41342 2.18033 3.84367 1.95739 0.594896 0.42191 4.20732 4.45577 2.33814 2.78346 9.0814 0.168475 2.29929 4.66256 2.04817 4.0597 8.05093 0.564455 4.56073 5.21315 1.58341 5.70932 4.03864 0.673169 0.705622 6.29971 0.586308 0.964894 3.74329 4.63502 0.533192 3.61723 1.04402 3.32964 1.41316 4.00481 6.57172 3.21774 6.37139 5.56503 4.24625 1.86116 7.03923 1.86172 2.77888 1.32171 1.13137 5.46783 1.5555 4.09333 3.63455 4.75599 4.9122 3.38249 5.79822 5.66749 0.775252 2.06418 0.900396 8.03491 4.51849 0.841305 5.08308 0.840387 2.8774 2.97267 2.88139 4.21963 6.11966 1.10373 0.332013 0.887659 0.735571 4.27225 2.27365 3.08242 8.56851 0.600352 6.01786 2.21312 4.84161 2.55127 3.48778 0.863372 2.42701 0.427379 3.72094 5.30826 0.63685 1.66001 7.07614 3.22397 4.17955 3.09547 1.39361 2.0952 7.3467 0.337982 2.62939 0.796297 4.21761 3.13533 2.98011 5.8709 2.56098 7.67481 3.16723 3.39666 3.59921 2.29871 1.91126 4.07103 2.42803 1.52829 7.30768 0.341087 8.66511 1.62136 5.4757 2.05877 4.20633 3.84741 3.46832 3.197 2.73877 6.0999 0.309934 5.10912 1.99617 1.49756 2.9366 0.40919 3.66508 3.87426 4.94975 8.35838 1.56988 3.09607 2.31539 0.872448 0.484213 4.25575 4.22563 2.45353 2.61201 6.97882 2.47514 6.20452 1.47302 4.37472 2.68897 1.52946 0.818051 0.262468 9.18082 0.775252 0.618368 4.00481 6.51934 1.22401 2.9366 8.29988 0.406738 8.69332 0.964894 8.36426 3.46004 3.54503 1.21612 2.82729 0.777397 4.11781 8.02227 1.13499 3.78398 3.48684 0.797548 7.03641 0.329349 4.16973 2.58163 4.30098 2.00483 0.891165 1.86116 4.483 5.2842 7.92479 1.01166 0.493184 0.37108 3.23488 3.33989 4.03224 7.10648 3.84294 1.77233 3.6544 0.804909 2.74798 6.52259 0.331524 3.43532 3.19653 0.935093 0.771141 1.99617 5.85474 1.32171 3.84843 4.26022 3.05678 6.80111 0.294499 10.8811 0.505654 2.81127 9.0548 0.36798 0.329349 3.197 2.32628 3.07425 1.90415 2.28717 1.59317 5.99127 0.1614 3.70575 3.98712 3.52272 0.872448 7.84446 3.90026 6.93429 1.69966 1.70307 5.10241 0.631113 3.23488 8.2073 1.85287 3.37176 0.374127 1.61228 2.25749 2.25883 5.50522 2.10965 3.14952 7.43016 1.80811 2.89372 4.02285 0.478785 3.55479 7.18923 0.544339 1.3552 2.56263 4.21761 4.17565 8.5955 1.21612 7.07163 0.474314 5.91771 0.893636 4.35988 1.78949 5.93788 2.81256 0.337982 2.98063 3.40805 2.13202 2.09877 5.79977 1.07773 1.16024 3.0048 1.41124 4.25157 0.477878 1.29848 5.79992 2.56893 2.6322 0.61342 3.52969 3.63633 4.26022 2.56939 3.84405 5.95626 2.29194 2.28368 4.37472 0.991101 2.69437 9.80734 1.67691 3.98712 5.83356 1.49092 7.02831 0.896846 8.13107 2.17498 0.515404 7.28121 1.04626 0.61655 8.29208 0.251285 4.07103 0.628079 5.66903 0.46762 1.00217 4.94975 3.52272 1.67691 1.02468 7.76599 2.77623 2.73628 1.07386 4.54031 3.64628 4.63354 6.56581 2.29564 4.25157 7.17671 0.804909 8.03088 2.03241 0.839805 2.14409 1.24379 3.02689 2.93695 4.27225 7.10748 0.747115 3.32087 4.11911 0.725246 9.08392 2.66234 3.54063 5.55519 2.42701 10.009 0.489269 0.478785 6.11804 2.21151 0.888502 9.44743 0.216298 6.10545 1.95311 4.00376 2.45552 5.50593 4.97684 0.553976 0.1614 1.47133 3.19684 1.06496 5.62119 0.52551 3.14952 4.10138 3.91219 4.39234 6.95277 1.8324 1.77551 3.96743 1.15372 6.81272 2.47597 4.37848 3.22718 1.66377 0.795543 6.47294 0.966901 3.44691 6.83741 2.6322 1.90099 0.210872 4.80112 2.32556 8.06011 3.40805 2.84046 1.94294 3.10131 1.13087 6.01865 0.796297 8.03737 2.4119 1.80447 0.725246 0.743451 4.17565 1.22353 2.17498 1.04449 2.58163 3.49096 5.88677 3.09901 2.05796 5.07917 8.86558 1.51491 8.51422 1.50547 1.58561 5.87038 0.64697 5.33934 0.41913 3.69183 1.18559 1.29513 8.43147 2.32943 2.99821 0.441351 5.18851 6.6936 0.453953 7.4898 0.552191 2.11167 1.45401 6.55557 0.533192 3.96265 6.44482 4.12001 2.58647 0.809072 0.93055 0.961494 2.89738 3.18719 2.23358 0.705622 7.79423 3.00378 7.09713 2.06414 0.669763 5.71706 0.415041 4.6078 2.09513 3.83227 6.95669 4.35153 2.70345 3.50505 6.90433 4.39599 4.29805 1.62461 7.21603 1.7709 0.795543 2.84571 2.52427 3.04076 0.629391 6.17389 1.70294 1.98805 3.07242 1.