<VTKFile type="UnstructuredGrid" version="0.1">
<UnstructuredGrid>
<Piece  NumberOfPoints="    2467" NumberOfCells="     412">
<Points>
<DataArray type="Float64" NumberOfComponents="3" format="ascii">
43.0865 -38.2091 0.0
43.1085 -37.607 0.0
38.0579 -33.797 0.0
36.7243 -34.2932 0.0
36.0272 -35.3552 0.0
41.0997 -39.7197 0.0
25.808 39.8146 0.0
24.5882 39.7989 0.0
23.9075 37.3246 0.0
23.9408 33.962 0.0
24.5515 33.4585 0.0
28.72 33.4309 0.0
29.0709 34.6461 0.0
31.5335 -23.423 0.0
31.0478 -19.4568 0.0
24.5793 -22.1371 0.0
23.6971 -23.879 0.0
24.6016 -24.9723 0.0
-2.14687 20.0945 0.0
-6.42705 16.8019 0.0
-5.75246 13.7982 0.0
-1.1564 16.7509 0.0
-0.0168559 17.8661 0.0
63.1526 -8.81929 0.0
63.1713 -8.32866 0.0
56.7109 -6.50708 0.0
55.8024 -7.57503 0.0
57.4371 -11.0375 0.0
62.2093 -10.2088 0.0
14.3427 -22.4497 0.0
12.2922 -21.1286 0.0
8.57963 -21.9003 0.0
5.20453 -22.8731 0.0
4.78522 -23.6822 0.0
7.21675 -25.7042 0.0
-40.6174 -9.35967 0.0
-37.8789 -12.2198 0.0
-37.2594 -12.5274 0.0
-36.0706 -12.1868 0.0
-36.8251 -8.37574 0.0
-37.4947 -5.18761 0.0
15.1217 -22.022 0.0
16.8831 -19.2291 0.0
14.5042 -14.4688 0.0
10.6615 -15.1925 0.0
12.7608 -20.606 0.0
14.8114 -21.9272 0.0
-37.2095 33.9687 0.0
-34.8081 40.2862 0.0
-34.7444 41.5152 0.0
-35.113 43.0263 0.0
-36.7345 43.1528 0.0
-38.0647 41.9478 0.0
-38.9691 39.5099 0.0
19.2764 -42.8156 0.0
15.2168 -42.239 0.0
14.4917 -42.6862 0.0
13.843 -45.9944 0.0
15.5846 -47.5621 0.0
15.9496 -47.5659 0.0
19.1065 -47.1779 0.0
2.91594 17.276 0.0
2.72775 16.6463 0.0
7.00854 12.2754 0.0
8.1952 12.3132 0.0
9.04616 12.3644 0.0
8.8394 16.4383 0.0
8.08009 16.8288 0.0
-45.8524 -18.008 0.0
-50.6202 -15.3979 0.0
-52.1532 -17.0762 0.0
-52.2614 -20.429 0.0
-51.0695 -23.6706 0.0
-50.8907 -23.7621 0.0
-49.0179 -21.5946 0.0
22.3229 25.4587 0.0
22.5297 26.0477 0.0
19.1681 33.6961 0.0
17.0488 33.9765 0.0
16.3963 32.4028 0.0
16.2997 31.472 0.0
-12.5837 -10.9765 0.0
-13.3781 -13.8298 0.0
-12.1877 -14.4972 0.0
-8.05462 -16.0602 0.0
-7.03921 -15.1623 0.0
-6.62291 -14.5435 0.0
-7.4451 -12.1694 0.0
40.8972 -3.39377 0.0
37.3042 -2.88555 0.0
35.9917 -8.78255 0.0
38.3887 -8.24115 0.0
41.3555 -3.87437 0.0
-16.3428 -37.1885 0.0
-17.6779 -36.9507 0.0
-21.8251 -38.2848 0.0
-21.3583 -41.7172 0.0
-18.2789 -44.0778 0.0
-17.9934 -44.0741 0.0
-22.5297 56.8237 0.0
-23.6638 56.6901 0.0
-24.8677 50.6372 0.0
-23.2243 49.9454 0.0
-22.7023 49.9753 0.0
-19.6965 50.3197 0.0
-18.9196 54.2368 0.0
-20.9064 56.6078 0.0
-45.3528 20.4774 0.0
-47.9634 20.1276 0.0
-48.2167 19.6847 0.0
-49.3205 15.4576 0.0
-46.404 13.1471 0.0
-44.5136 13.9286 0.0
44.6372 -7.08984 0.0
43.8803 -5.23541 0.0
42.5436 -4.10004 0.0
41.6454 -4.08935 0.0
38.6786 -8.45612 0.0
38.4241 -10.7169 0.0
38.387 -12.2676 0.0
37.7277 -11.0576 0.0
37.9822 -8.79686 0.0
35.5852 -9.33826 0.0
31.4498 -10.378 0.0
31.1691 -11.5094 0.0
31.3081 -13.8685 0.0
-37.5669 -2.98548 0.0
-35.4426 -2.98024 0.0
-35.5499 3.0625 0.0
-37.503 4.62103 0.0
-38.0499 4.02007 0.0
-38.4151 -2.31892 0.0
-21.2391 24.0322 0.0
-23.2989 21.3155 0.0
-24.0069 20.0432 0.0
-23.4833 17.2971 0.0
-21.4221 16.9713 0.0
-20.0037 19.5711 0.0
31.2226 31.3621 0.0
34.1037 33.8984 0.0
32.3773 39.4889 0.0
29.6437 34.5263 0.0
29.2928 33.3111 0.0
43.4987 21.9773 0.0
45.2929 22.6113 0.0
45.9098 27.371 0.0
45.8271 28.163 0.0
45.1785 29.3496 0.0
42.3052 30.1612 0.0
41.3975 29.4824 0.0
40.8457 27.4764 0.0
48.5508 -37.1705 0.0
49.7794 -35.3148 0.0
51.421 -30.979 0.0
51.4277 -30.3686 0.0
49.8786 -30.5463 0.0
45.8967 -31.0153 0.0
-44.0472 20.7485 0.0
-44.9496 20.4518 0.0
-44.1104 13.903 0.0
-41.386 13.8878 0.0
-39.1604 14.203 0.0
-50.1699 29.1931 0.0
-50.2594 29.1082 0.0
-45.3138 27.8878 0.0
-42.2963 31.3278 0.0
-42.6942 32.419 0.0
-45.7616 31.5072 0.0
-56.1691 16.5102 0.0
-58.1023 14.48 0.0
-53.0737 11.8202 0.0
-51.3397 13.3389 0.0
-50.7211 14.7852 0.0
-41.4375 13.3625 0.0
-44.1619 13.3777 0.0
-46.0523 12.5962 0.0
-45.0904 9.82511 0.0
-40.8545 8.72831 0.0
29.539 -53.183 0.0
33.6354 -49.7117 0.0
29.9339 -47.7797 0.0
26.6546 -48.8797 0.0
26.996 -52.5593 0.0
28.0369 -53.4346 0.0
-49.8096 0.804783 0.0
-51.0472 2.3625 0.0
-57.0825 4.64731 0.0
-57.9581 1.0034 0.0
-54.4035 -2.10882 0.0
6.62975 42.661 0.0
3.75544 44.36 0.0
1.93092 43.3882 0.0
-3.23485 37.2115 0.0
-2.06626 36.6745 0.0
9.56044 26.2651 0.0
9.02112 25.3004 0.0
8.48882 17.5371 0.0
9.24814 17.1467 0.0
9.80355 17.411 0.0
12.4965 20.6647 0.0
12.8043 21.0221 0.0
13.1353 24.2185 0.0
11.8489 26.102 0.0
9.40202 41.5701 0.0
6.84075 42.4524 0.0
-1.85526 36.4659 0.0
-0.151763 35.0716 0.0
1.57802 35.6123 0.0
8.33256 40.0918 0.0
-38.3696 -37.9505 0.0
-38.4975 -38.4564 0.0
-36.7093 -40.369 0.0
-34.3142 -41.7645 0.0
-32.7162 -36.3624 0.0
55.178 5.78204 0.0
55.4354 5.68637 0.0
63.9529 7.14358 0.0
63.679 8.31759 0.0
55.2418 8.5346 0.0
54.8155 8.09138 0.0
-4.89689 37.206 0.0
-3.68496 37.2179 0.0
1.48081 43.3945 0.0
-5.09693 43.0741 0.0
-28.1318 -16.0971 0.0
-30.7793 -13.7606 0.0
-33.4464 -12.6292 0.0
-34.3833 -12.9435 0.0
-33.6696 -14.4958 0.0
-31.7451 -18.413 0.0
-24.5696 28.9263 0.0
-25.3015 29.1846 0.0
-27.9444 28.7097 0.0
-27.6705 24.2558 0.0
-24.8548 20.8147 0.0
-24.3829 20.5799 0.0
-23.6749 21.8521 0.0
53.3011 -26.9873 0.0
54.4974 -25.6262 0.0
54.6827 -25.2177 0.0
54.9357 -21.2343 0.0
49.1653 -22.72 0.0
45.8356 -24.7898 0.0
-23.1274 -50.2382 0.0
-22.1777 -50.0855 0.0
-18.4917 -44.6701 0.0
-21.5711 -42.3095 0.0
-22.0521 -42.593 0.0
43.3058 -37.362 0.0
43.3467 -31.92 0.0
40.8963 -32.5237 0.0
38.2551 -33.5519 0.0
25.8315 -48.8923 0.0
21.8976 -51.0431 0.0
19.4667 -55.3609 0.0
26.3966 -52.7252 0.0
26.0552 -49.0456 0.0
-58.3752 14.2145 0.0
-59.4083 13.1698 0.0
-60.1188 11.8768 0.0
-57.6932 9.36175 0.0
-54.3247 10.2262 0.0
-53.3466 11.5548 0.0
8.63484 39.8866 0.0
1.8803 35.4071 0.0
8.90501 34.7961 0.0
10.0571 35.6635 0.0
24.4116 2.33373 0.0
23.8558 2.71749 0.0
18.2412 -1.54836 0.0
18.2817 -4.19914 0.0
19.5125 -4.93516 0.0
22.5058 -3.10577 0.0
8.6901 -13.4965 0.0
9.61603 -13.7055 0.0
18.7181 -6.88246 0.0
18.76 -5.70412 0.0
17.5292 -4.9681 0.0
17.1379 -5.01628 0.0
16.5764 -5.10038 0.0
9.68069 -10.4102 0.0
8.90891 -10.992 0.0
24.2782 46.8453 0.0
24.2294 46.0083 0.0
29.4391 41.2229 0.0
31.7371 41.6373 0.0
31.5749 43.7338 0.0
27.584 45.4774 0.0
-7.01398 -38.814 0.0
-7.69756 -39.2286 0.0
-6.08121 -45.7257 0.0
-4.28734 -44.3825 0.0
-1.6065 -41.5992 0.0
23.6929 -16.9648 0.0
21.3186 -15.3955 0.0
17.4508 -19.3521 0.0
15.6894 -22.145 0.0
16.0083 -22.6801 0.0
17.9416 -22.7741 0.0
32.0435 14.8813 0.0
33.7746 10.4552 0.0
38.6917 16.2667 0.0
-55.0784 -3.58151 0.0
-54.86 -2.37087 0.0
-58.4145 0.741347 0.0
-59.7787 0.771556 0.0
-62.638 -0.444197 0.0
-63.3179 -1.62069 0.0
9.41923 -56.9333 0.0
7.29081 -53.3611 0.0
1.58105 -55.2232 0.0
4.11357 -57.2283 0.0
8.17132 -57.7935 0.0
8.6249 -57.725 0.0
-17.9381 48.8359 0.0
-12.3543 52.9136 0.0
-14.3413 56.0474 0.0
-14.7668 55.9329 0.0
-18.3364 54.1798 0.0
-19.1134 50.2628 0.0
-31.4097 30.3645 0.0
-33.6939 28.6481 0.0
-30.5877 23.3937 0.0
-28.1443 24.4416 0.0
-28.4183 28.8955 0.0
-29.6249 30.3288 0.0
-49.8618 15.5384 0.0
-48.7579 19.7655 0.0
-55.5237 18.9242 0.0
-55.9575 16.8429 0.0
-50.5095 15.118 0.0
21.9693 22.8236 0.0
19.8566 19.4501 0.0
26.5221 17.9051 0.0
24.1063 22.4107 0.0
22.8986 23.1477 0.0
35.9512 1.45379 0.0
36.5805 0.395938 0.0
43.8551 5.66633 0.0
44.8415 7.40612 0.0
42.5723 9.36053 0.0
38.1261 4.74788 0.0
12.3245 -3.38745 0.0
9.93472 -2.39725 0.0
7.28651 -7.50909 0.0
8.51121 -10.7035 0.0
9.28298 -10.1216 0.0
22.9641 -2.9707 0.0
25.0599 -3.89426 0.0
28.8792 2.41504 0.0
28.0744 2.92014 0.0
26.2655 2.94093 0.0
24.8699 2.4688 0.0
37.737 -12.9147 0.0
37.7742 -11.3639 0.0
31.3546 -14.1748 0.0
31.3028 -15.3534 0.0
32.232 -16.2341 0.0
36.429 -15.6306 0.0
37.2371 -14.6676 0.0
-34.2289 -42.3784 0.0
-36.624 -40.9828 0.0
-36.9149 -45.4551 0.0
-32.632 -49.0103 0.0
-31.7835 -45.9098 0.0
-6.44247 -15.7784 0.0
-7.45787 -16.6763 0.0
-7.3204 -17.564 0.0
-2.56066 -23.3295 0.0
-1.71614 -23.8203 0.0
-1.00923 -20.1628 0.0
-5.41496 23.006 0.0
-8.22024 22.7973 0.0
-12.8004 14.9046 0.0
-11.9728 13.5215 0.0
-10.0011 15.1278 0.0
41.096 13.1918 0.0
37.2212 10.1425 0.0
38.0386 5.18613 0.0
42.4848 9.79878 0.0
41.6669 12.1084 0.0
-35.1068 -3.1025 0.0
-31.6991 -3.27498 0.0
-31.2021 -2.02806 0.0
-32.3949 0.804941 0.0
-35.2141 2.94023 0.0
-1.11517 -3.56329 0.0
-0.997896 -3.50108 0.0
-4.91539 4.4646 0.0
-5.91182 4.26398 0.0
-6.48846 0.506932 0.0
27.2196 16.3986 0.0
24.8471 14.2712 0.0
26.3736 3.9748 0.0
28.1826 3.95401 0.0
27.8433 14.9178 0.0
27.6586 16.2842 0.0
46.5791 15.7849 0.0
47.6371 15.9411 0.0
47.4728 20.7621 0.0
45.494 21.8813 0.0
43.6998 21.2473 0.0
42.3949 20.188 0.0
-23.5875 -50.2645 0.0
-23.4244 -50.2432 0.0
-22.3491 -42.598 0.0
-26.7012 -45.0986 0.0
-20.9984 -26.1942 0.0
-20.2129 -27.9741 0.0
-19.1097 -27.9913 0.0
-17.2622 -25.2699 0.0
-17.4923 -21.1647 0.0
-17.842 -20.6523 0.0
-20.2767 -19.9111 0.0
-24.0538 39.7619 0.0
-24.1312 37.4548 0.0
-22.94 36.7075 0.0
-19.7824 36.0401 0.0
-18.3156 37.3532 0.0
-18.7311 40.6347 0.0
44.3767 -4.70953 0.0
49.1478 -2.96307 0.0
47.2687 0.555907 0.0
43.04 -3.57416 0.0
-43.6814 -13.5004 0.0
-50.0704 -13.3678 0.0
-50.2914 -15.0016 0.0
-45.5236 -17.6117 0.0
-43.8784 -17.707 0.0
-50.1992 29.6388 0.0
-45.7908 31.9529 0.0
-42.5557 39.7071 0.0
-44.4494 38.8044 0.0
-34.3441 40.1436 0.0
-32.6502 34.8118 0.0
-29.3524 37.5187 0.0
-30.335 38.6285 0.0
-34.2803 41.3725 0.0
0.502114 58.4246 0.0
-0.222523 58.1427 0.0
0.784708 53.1306 0.0
4.68824 51.9799 0.0
5.07865 56.0347 0.0
42.3039 12.1762 0.0
43.1218 9.8666 0.0
45.391 7.91219 0.0
46.7336 8.09815 0.0
49.8627 9.7017 0.0
49.5098 11.1345 0.0
52.2833 8.54568 0.0
50.1812 9.35456 0.0
47.0521 7.75101 0.0
47.9838 2.55358 0.0
-51.578 -24.1429 0.0
-52.7699 -20.9014 0.0
-58.1694 -22.49 0.0
-56.6641 -27.1628 0.0
-53.9163 -26.0357 0.0
9.82813 -46.5622 0.0
13.2531 -45.8326 0.0
13.9018 -42.5244 0.0
9.57292 -40.3305 0.0
8.46628 -39.9228 0.0
7.50442 -40.2723 0.0
17.3416 -35.5421 0.0
19.7121 -33.3424 0.0
10.8188 -31.1543 0.0
10.4643 -33.7526 0.0
10.6398 -34.1502 0.0
16.6097 -35.5104 0.0
-38.0094 5.18886 0.0
-38 7.26934 0.0
[...]
<CellData Scalars="cell variable 4" Vectors="cell vector">
<DataArray type="Float64" NumberOfComponents="3" Name="cell vector" format="ascii">
0 0 0
0 0 0
0 0 0
0 0 0
0 0 0
0 0 0
0 0 0
0 0 0
0 0 0
0 0 0
0 0 0
0 0 0
0 0 0
0 0 0
0 0 0
0 0 0
0 0 0
0 0 0
0 0 0
0 0 0
0 0 0
0 0 0
0 0 0
0 0 0
0 0 0
0 0 0
0 0 0
0 0 0
0 0 0
0 0 0
0 0 0
0 0 0
0 0 0
0 0 0
0 0 0
0 0 0
0 0 0
0 0 0
0 0 0
0 0 0
0 0 0
0 0 0
0 0 0
0 0 0
0 0 0
0 0 0
0 0 0
0 0 0
0 0 0
0 0 0
0 0 0
0 0 0
0 0 0
0 0 0
0 0 0
0 0 0
0 0 0
0 0 0
0 0 0
0 0 0
0 0 0
0 0 0
0 0 0
0 0 0
0 0 0
0 0 0
0 0 0
0 0 0
0 0 0
0 0 0
0 0 0
0 0 0
0 0 0
0 0 0
0 0 0
0 0 0
0 0 0
0 0 0
0 0 0
0 0 0
0 0 0
0 0 0
0 0 0
0 0 0
0 0 0
0 0 0
0 0 0
0 0 0
0 0 0
0 0 0
0 0 0
0 0 0
0 0 0
0 0 0
0 0 0
0 0 0
0 0 0
0 0 0
0 0 0
0 0 0
0 0 0
0 0 0
0 0 0
0 0 0
0 0 0
0 0 0
0 0 0
0 0 0
0 0 0
0 0 0
0 0 0
0 0 0
0 0 0
0 0 0
0 0 0
0 0 0
0 0 0
0 0 0
0 0 0
0 0 0
0 0 0
0 0 0
0 0 0
0 0 0
0 0 0
0 0 0
0 0 0
0 0 0
0 0 0
0 0 0
0 0 0
0 0 0
0 0 0
0 0 0
0 0 0
0 0 0
0 0 0
0 0 0
0 0 0
0 0 0
0 0 0
0 0 0
0 0 0
0 0 0
0 0 0
0 0 0
0 0 0
0 0 0
0 0 0
0 0 0
0 0 0
0 0 0
0 0 0
0 0 0
0 0 0
0 0 0
0 0 0
0 0 0
0 0 0
0 0 0
0 0 0
0 0 0
0 0 0
0 0 0
0 0 0
0 0 0
0 0 0
0 0 0
0 0 0
0 0 0
0 0 0
0 0 0
0 0 0
0 0 0
0 0 0
0 0 0
0 0 0
0 0 0
0 0 0
0 0 0
0 0 0
0 0 0
0 0 0
0 0 0
0 0 0
0 0 0
0 0 0
0 0 0
0 0 0
0 0 0
0 0 0
0 0 0
0 0 0
0 0 0
0 0 0
0 0 0
0 0 0
0 0 0
0 0 0
0 0 0
0 0 0
0 0 0
0 0 0
0 0 0
0 0 0
0 0 0
0 0 0
0 0 0
0 0 0
0 0 0
0 0 0
0 0 0
0 0 0
0 0 0
0 0 0
0 0 0
0 0 0
0 0 0
0 0 0
0 0 0
0 0 0
0 0 0
0 0 0
0 0 0
0 0 0
0 0 0
0 0 0
0 0 0
0 0 0
0 0 0
0 0 0
0 0 0
0 0 0
0 0 0
0 0 0
0 0 0
0 0 0
0 0 0
0 0 0
0 0 0
0 0 0
0 0 0
0 0 0
0 0 0
0 0 0
0 0 0
0 0 0
0 0 0
0 0 0
0 0 0
0 0 0
0 0 0
0 0 0
0 0 0
0 0 0
0 0 0
0 0 0
0 0 0
0 0 0
0 0 0
0 0 0
0 0 0
0 0 0
0 0 0
0 0 0
0 0 0
0 0 0
0 0 0
0 0 0
0 0 0
0 0 0
0 0 0
0 0 0
0 0 0
0 0 0
0 0 0
0 0 0
0 0 0
0 0 0
0 0 0
0 0 0
0 0 0
0 0 0
0 0 0
0 0 0
0 0 0
0 0 0
0 0 0
0 0 0
0 0 0
0 0 0
0 0 0
0 0 0
0 0 0
0 0 0
0 0 0
0 0 0
0 0 0
0 0 0
0 0 0
0 0 0
0 0 0
0 0 0
0 0 0
0 0 0
0 0 0
0 0 0
0 0 0
0 0 0
0 0 0
0 0 0
0 0 0
0 0 0
0 0 0
0 0 0
0 0 0
0 0 0
0 0 0
0 0 0
0 0 0
0 0 0
0 0 0
0 0 0
0 0 0
0 0 0
0 0 0
0 0 0
0 0 0
0 0 0
0 0 0
0 0 0
0 0 0
0 0 0
0 0 0
0 0 0
0 0 0
0 0 0
0 0 0
0 0 0
0 0 0
0 0 0
0 0 0
0 0 0
0 0 0
0 0 0
0 0 0
0 0 0
0 0 0
0 0 0
0 0 0
0 0 0
0 0 0
0 0 0
0 0 0
0 0 0
0 0 0
0 0 0
0 0 0
0 0 0
0 0 0
0 0 0
0 0 0
0 0 0
0 0 0
0 0 0
0 0 0
0 0 0
0 0 0
0 0 0
0 0 0
0 0 0
0 0 0
0 0 0
0 0 0
0 0 0
0 0 0
0 0 0
0 0 0
0 0 0
0 0 0
0 0 0
0 0 0
0 0 0
0 0 0
0 0 0
0 0 0
0 0 0
0 0 0
0 0 0
0 0 0
0 0 0
0 0 0
0 0 0
0 0 0
0 0 0
0 0 0
0 0 0
0 0 0
0 0 0
0 0 0
0 0 0
0 0 0
0 0 0
0 0 0
0 0 0
0 0 0
0 0 0
0 0 0
0 0 0
0 0 0
0 0 0
0 0 0
</DataArray>
<DataArray type="Float64" Name="cell vector length" format="ascii">
0 0 0 0 0 0 0 0 0 0 0 0 0 0 0 0 0 0 0 0 0 0 0 0 0 0 0 0 0 0 0 0 0 0 0 0 0 0 0 0 0 0 0 0 0 0 0 0 0 0 0 0 0 0 0 0 0 0 0 0 0 0 0 0 0 0 0 0 0 0 0 0 0 0 0 0 0 0 0 0 0 0 0 0 0 0 0 0 0 0 0 0 0 0 0 0 0 0 0 0 0 0 0 0 0 0 0 0 0 0 0 0 0 0 0 0 0 0 0 0 0 0 0 0 0 0 0 0 0 0 0 0 0 0 0 0 0 0 0 0 0 0 0 0 0 0 0 0 0 0 0 0 0 0 0 0 0 0 0 0 0 0 0 0 0 0 0 0 0 0 0 0 0 0 0 0 0 0 0 0 0 0 0 0 0 0 0 0 0 0 0 0 0 0 0 0 0 0 0 0 0 0 0 0 0 0 0 0 0 0 0 0 0 0 0 0 0 0 0 0 0 0 0 0 0 0 0 0 0 0 0 0 0 0 0 0 0 0 0 0 0 0 0 0 0 0 0 0 0 0 0 0 0 0 0 0 0 0 0 0 0 0 0 0 0 0 0 0 0 0 0 0 0 0 0 0 0 0 0 0 0 0 0 0 0 0 0 0 0 0 0 0 0 0 0 0 0 0 0 0 0 0 0 0 0 0 0 0 0 0 0 0 0 0 0 0 0 0 0 0 0 0 0 0 0 0 0 0 0 0 0 0 0 0 0 0 0 0 0 0 0 0 0 0 0 0 0 0 0 0 0 0 0 0 0 0 0 0 0 0 0 0 0 0 0 0 0 0 0 0 0 0 0 0 0 0 0 0 0 0 0 0 0 0 0 0 0 0 0 0 0 0 0 0 0 0 0 0 0 0 0 0 0 0 0 0 0 0 0 0 0 0 
</DataArray>
<DataArray type="Float64" Name="cell variable 4" format="ascii">
0.316217 0.434405 0.657465 1.07467 0.249242 0.94865 0.542818 0.94865 0.371127 0.399988 1.14226 0.479217 0.790107 1.04461 0.573608 0.66381 0.334198 0.495708 0.573608 0.573608 0.542818 0.99432 0.511974 0.511974 0.118662 0.495708 0.393381 0.179448 0.495708 0.163146 0.332003 0.626025 0.980966 0.626025 0.437452 0.184059 0.36504 0.631062 0.673042 0.313432 0.393247 0.316217 0.187543 0.179448 0.626025 1.10185 1.11547 0.434405 0.514292 0.657465 0.848855 0.23011 0.442722 0.33356 0.673042 0.179448 1.06245 0.736473 1.11547 0.912892 0.573608 0.136507 1.04461 1.07467 0.736473 0.542818 1.12037 0.848855 0.50937 0.393247 0.631062 0.503886 0.45141 0.542818 0.153908 0.371127 0.36504 0.50937 0.45141 0.23011 0.442722 0.708918 0.495708 0.790107 0.45141 0.399988 1.04461 1.10185 1.14226 0.371127 0.393381 0.708918 0.36504 0.334198 0.980966 0.0978407 0.118662 0.919422 0.503886 0.542818 0.503886 1.04461 0.249242 0.313432 0.631062 0.919422 0.479217 0.23011 0.434405 0.912892 0.542818 0.790107 0.763876 0.673042 0.161465 0.334198 0.542818 0.657465 1.11547 0.789941 0.393247 0.511974 0.399988 0.343308 0.393381 0.673042 0.32239 0.573608 0.99432 0.514292 0.514292 0.763876 0.789941 0.393381 0.66381 1.06245 0.50937 0.789941 1.04461 0.789941 0.790107 1.00681 1.12037 0.393247 0.542818 0.980966 0.66381 0.99432 0.32239 0.848855 0.511974 0.980966 0.313432 0.919422 1.00681 0.332003 0.912892 0.790107 0.542818 1.06245 1.07467 0.94865 0.848855 1.06245 0.511974 0.763876 0.657465 0.434405 1.11547 0.36504 0.27464 0.184973 0.573608 0.371127 0.313432 0.313432 1.00681 1.00681 0.343308 0.187543 1.12037 1.00681 1.00681 0.657465 0.442722 0.437452 0.657465 1.11547 0.313432 0.848855 0.23011 0.912892 1.07467 0.399988 0.50937 0.789941 0.94865 0.0773391 0.8063 0.50937 0.790107 0.393247 0.161465 0.657465 0.631062 0.50937 0.45141 0.708918 0.763876 0.442722 0.514292 0.673042 0.631062 0.495708 0.316217 0.153908 0.316217 0.673042 0.573608 1.07467 0.252014 0.316217 0.434405 0.45141 0.343308 0.8063 0.511974 0.332003 0.437452 0.763876 0.316217 0.90618 0.27464 1.10185 1.04461 0.919422 1.10185 0.479217 0.0976075 0.631062 0.99432 0.23011 0.343308 0.32239 0.32239 0.399988 0.90618 0.736473 0.153908 0.0505895 1.10185 0.393247 0.626025 0.36504 0.316217 0.763876 1.10185 0.27464 0.442722 0.437452 0.32239 0.514292 0.479217 0.45141 0.36504 0.631062 1.14226 0.912892 0.437452 0.919422 1.11547 0.789941 0.136507 0.542818 0.503886 0.163146 0.36504 0.631062 0.94865 0.371127 0.187543 0.736473 0.8063 0.912892 0.249242 0.631062 0.573608 0.343308 0.50937 1.00681 0.343308 0.23011 0.94865 0.32239 0.332003 0.8063 0.66381 1.12037 0.66381 0.673042 0.912892 0.790107 1.12037 0.334198 0.187543 0.130161 0.33356 0.313432 0.161465 0.90618 0.631062 0.542818 1.12037 1.07467 0.912892 0.399988 1.10185 1.11547 0.980966 0.8063 0.631062 0.32239 0.393381 0.399988 0.332003 0.316217 0.542818 1.14226 0.573608 0.33356 1.04461 0.66381 0.708918 0.252014 0.626025 0.479217 0.90618 0.495708 0.36504 0.514292 0.542818 0.249242 1.00681 0.393381 0.99432 1.06245 0.8063 0.848855 0.33356 0.434405 0.657465 0.573608 0.919422 0.442722 0.399988 0.252014 0.514292 0.8063 0.495708 1.14226 1.12037 0.343308 0.313432 0.919422 0.919422 0.763876 0.848855 0.313432 0.789941 1.11547 0.980966 0.442722 0.434405 1.10185 0.23011 0.790107 0.153908 0.393247 0.673042 0.626025 0.66381 0.511974 1.06245 0.514292 0.542818 0.343308 0.626025 0.90618 1.14226 0.631062 0.626025 1.04461 0.179448 0.371127 0.334198 0.919422 0.66381 0.511974 1.06245 0.161465 1.07467 0.252014 0.789941 0.442722 0.673042 0.371127 0.27464 0.848855 0.23011 0.434405 0.763876 0.36504 
</DataArray>
<DataArray type="Float64" Name="cell variable 5" format="ascii">
0.0909148 0.0503251 0.0226112 0.00858434 0.138655 0.0109898 0.0328244 0.0109898 0.0676886 0.0588268 0.00760594 0.0417277 0.0157662 0.00908091 0.0294962 0.0221905 0.082177 0.0391044 0.0294962 0.0294962 0.0328244 0.0100133 0.0367488 0.0367488 0.415271 0.0391044 0.0606986 0.236958 0.0391044 0.273099 0.0831765 0.0248813 0.0102849 0.0248813 0.0496613 0.227907 0.0698059 0.0244954 0.021599 0.0923878 0.0607373 0.0909148 0.221374 0.236958 0.0248813 0.00816951 0.00797274 0.0503251 0.0364304 0.0226112 0.0136882 0.158855 0.0485429 0.0824658 0.021599 0.236958 0.00878122 0.0181031 0.00797274 0.0118572 0.0294962 0.349234 0.00908091 0.00858434 0.0181031 0.0328244 0.00790366 0.0136882 0.0371116 0.0607373 0.0244954 0.037893 0.0467791 0.0328244 0.296844 0.0676886 0.0698059 0.0371116 0.0467791 0.158855 0.0485429 0.0195097 0.0391044 0.0157662 0.0467791 0.0588268 0.00908091 0.00816951 0.00760594 0.0676886 0.0606986 0.0195097 0.0698059 0.082177 0.0102849 0.510913 0.415271 0.0116913 0.037893 0.0328244 0.037893 0.00908091 0.138655 0.0923878 0.0244954 0.0116913 0.0417277 0.158855 0.0503251 0.0118572 0.0328244 0.0157662 0.016849 0.021599 0.277231 0.082177 0.0328244 0.0226112 0.00797274 0.0157727 0.0607373 0.0367488 0.0588268 0.0782104 0.0606986 0.021599 0.0877689 0.0294962 0.0100133 0.0364304 0.0364304 0.016849 0.0157727 0.0606986 0.0221905 0.00878122 0.0371116 0.0157727 0.00908091 0.0157727 0.0157662 0.00976872 0.00790366 0.0607373 0.0328244 0.0102849 0.0221905 0.0100133 0.0877689 0.0136882 0.0367488 0.0102849 0.0923878 0.0116913 0.00976872 0.0831765 0.0118572 0.0157662 0.0328244 0.00878122 0.00858434 0.0109898 0.0136882 0.00878122 0.0367488 0.016849 0.0226112 0.0503251 0.00797274 0.0698059 0.117059 0.226167 0.0294962 0.0676886 0.0923878 0.0923878 0.00976872 0.00976872 0.0782104 0.221374 0.00790366 0.00976872 0.00976872 0.0226112 0.0485429 0.0496613 0.0226112 0.00797274 0.0923878 0.0136882 0.158855 0.0118572 0.00858434 0.0588268 0.0371116 0.0157727 0.0109898 0.62573 0.0151488 0.0371116 0.0157662 0.0607373 0.277231 0.0226112 0.0244954 0.0371116 0.0467791 0.0195097 0.016849 0.0485429 0.0364304 0.021599 0.0244954 0.0391044 0.0909148 0.296844 0.0909148 0.021599 0.0294962 0.00858434 0.136034 0.0909148 0.0503251 0.0467791 0.0782104 0.0151488 0.0367488 0.0831765 0.0496613 0.016849 0.0909148 0.0120314 0.117059 0.00816951 0.00908091 0.0116913 0.00816951 0.0417277 0.512105 0.0244954 0.0100133 0.158855 0.0782104 0.0877689 0.0877689 0.0588268 0.0120314 0.0181031 0.296844 0.796223 0.00816951 0.0607373 0.0248813 0.0698059 0.0909148 0.016849 0.00816951 0.117059 0.0485429 0.0496613 0.0877689 0.0364304 0.0417277 0.0467791 0.0698059 0.0244954 0.00760594 0.0118572 0.0496613 0.0116913 0.00797274 0.0157727 0.349234 0.0328244 0.037893 0.273099 0.0698059 0.0244954 0.0109898 0.0676886 0.221374 0.0181031 0.0151488 0.0118572 0.138655 0.0244954 0.0294962 0.0782104 0.0371116 0.00976872 0.0782104 0.158855 0.0109898 0.0877689 0.0831765 0.0151488 0.0221905 0.00790366 0.0221905 0.021599 0.0118572 0.0157662 0.00790366 0.082177 0.221374 0.371169 0.0824658 0.0923878 0.277231 0.0120314 0.0244954 0.0328244 0.00790366 0.00858434 0.0118572 0.0588268 0.00816951 0.00797274 0.0102849 0.0151488 0.0244954 0.0877689 0.0606986 0.0588268 0.0831765 0.0909148 0.0328244 0.00760594 0.0294962 0.0824658 0.00908091 0.0221905 0.0195097 0.136034 0.0248813 0.0417277 0.0120314 0.0391044 0.0698059 0.0364304 0.0328244 0.138655 0.00976872 0.0606986 0.0100133 0.00878122 0.0151488 0.0136882 0.0824658 0.0503251 0.0226112 0.0294962 0.0116913 0.0485429 0.0588268 0.136034 0.0364304 0.0151488 0.0391044 0.00760594 0.00790366 0.0782104 0.0923878 0.0116913 0.0116913 0.016849 0.0136882 0.0923878 0.0157727 0.00797274 0.0102849 0.0485429 0.0503251 0.00816951 0.158855 0.0157662 0.296844 0.0607373 0.021599 0.0248813 0.0221905 0.0367488 0.00878122 0.0364304 0.0328244 0.0782104 0.0248813 0.0120314 0.00760594 0.0244954 0.0248813 0.00908091 0.236958 0.0676886 0.082177 0.0116913 0.0221905 0.0367488 0.00878122 0.277231 0.00858434 0.136034 0.0157727 0.0485429 0.021599 0.0676886 0.117059 0.0136882 0.158855 0.0503251 0.016849 0.0698059 
</DataArray>
<DataArray type="Float64" Name="cell variable 6" format="ascii">
0.0038835 0.000857904 8.84138e-05 5.3719e-06 0.0566856 1.10661e-05 0.000251962 1.10661e-05 0.0019189 0.00127682 3.76475e-06 0.00051123 3.15261e-05 6.33494e-06 0.000187165 8.3838e-05 0.00576492 0.000410215 0.000187165 0.000187165 0.000251962 8.43313e-06 0.00035504 0.00035504 0.533485 0.000410215 0.00151522 0.235078 0.000410215 0.294057 0.00364689 0.000115922 9.11938e-06 0.000115922 0.000885689 0.235443 0.0019794 0.000110922 7.76673e-05 0.00439847 0.00202135 0.0038835 0.185318 0.235078 0.000115922 4.64493e-06 4.32387e-06 0.000857904 0.000349016 8.84138e-05 2.09522e-05 0.0671729 0.000858618 0.00403961 7.76673e-05 0.235078 5.74138e-06 4.69278e-05 4.32387e-06 1.38076e-05 0.000187165 0.432355 6.33494e-06 5.3719e-06 4.69278e-05 0.000251962 4.21468e-06 2.09522e-05 0.000394946 0.00202135 0.000110922 0.000380196 0.000696942 0.000251962 0.3398 0.0019189 0.0019794 0.000394946 0.000696942 0.0671729 0.000858618 5.81379e-05 0.000410215 3.15261e-05 0.000696942 0.00127682 6.33494e-06 4.64493e-06 3.76475e-06 0.0019189 0.00151522 5.81379e-05 0.0019794 0.00576492 9.11938e-06 0.674122 0.533485 1.32528e-05 0.000380196 0.000251962 0.000380196 6.33494e-06 0.0566856 0.00439847 0.000110922 1.32528e-05 0.00051123 0.0671729 0.000857904 1.38076e-05 0.000251962 3.15261e-05 3.81646e-05 7.76673e-05 0.298329 0.00576492 0.000251962 8.84138e-05 4.32387e-06 3.156e-05 0.00202135 0.00035504 0.00127682 0.00310284 0.00151522 7.76673e-05 0.00628005 0.000187165 8.43313e-06 0.000349016 0.000349016 3.81646e-05 3.156e-05 0.00151522 8.3838e-05 5.74138e-06 0.000394946 3.156e-05 6.33494e-06 3.156e-05 3.15261e-05 7.8448e-06 4.21468e-06 0.00202135 0.000251962 9.11938e-06 8.3838e-05 8.43313e-06 0.00628005 2.09522e-05 0.00035504 9.11938e-06 0.00439847 1.32528e-05 7.8448e-06 0.00364689 1.38076e-05 3.15261e-05 0.000251962 5.74138e-06 5.3719e-06 1.10661e-05 2.09522e-05 5.74138e-06 0.00035504 3.81646e-05 8.84138e-05 0.000857904 4.32387e-06 0.0019794 0.02163 0.208208 0.000187165 0.0019189 0.00439847 0.00439847 7.8448e-06 7.8448e-06 0.00310284 0.185318 4.21468e-06 7.8448e-06 7.8448e-06 8.84138e-05 0.000858618 0.000885689 8.84138e-05 4.32387e-06 0.00439847 2.09522e-05 0.0671729 1.38076e-05 5.3719e-06 0.00127682 0.000394946 3.156e-05 1.10661e-05 0.780596 2.80904e-05 0.000394946 3.15261e-05 0.00202135 0.298329 8.84138e-05 0.000110922 0.000394946 0.000696942 5.81379e-05 3.81646e-05 0.000858618 0.000349016 7.76673e-05 0.000110922 0.000410215 0.0038835 0.3398 0.0038835 7.76673e-05 0.000187165 5.3719e-06 0.0441278 0.0038835 0.000857904 0.000696942 0.00310284 2.80904e-05 0.00035504 0.00364689 0.000885689 3.81646e-05 0.0038835 1.4406e-05 0.02163 4.64493e-06 6.33494e-06 1.32528e-05 4.64493e-06 0.00051123 0.67289 0.000110922 8.43313e-06 0.0671729 0.00310284 0.00628005 0.00628005 0.00127682 1.4406e-05 4.69278e-05 0.3398 0.900072 4.64493e-06 0.00202135 0.000115922 0.0019794 0.0038835 3.81646e-05 4.64493e-06 0.02163 0.000858618 0.000885689 0.00628005 0.000349016 0.00051123 0.000696942 0.0019794 0.000110922 3.76475e-06 1.38076e-05 0.000885689 1.32528e-05 4.32387e-06 3.156e-05 0.432355 0.000251962 0.000380196 0.294057 0.0019794 0.000110922 1.10661e-05 0.0019189 0.185318 4.69278e-05 2.80904e-05 1.38076e-05 0.0566856 0.000110922 0.000187165 0.00310284 0.000394946 7.8448e-06 0.00310284 0.0671729 1.10661e-05 0.00628005 0.00364689 2.80904e-05 8.3838e-05 4.21468e-06 8.3838e-05 7.76673e-05 1.38076e-05 3.15261e-05 4.21468e-06 0.00576492 0.185318 0.477444 0.00403961 0.00439847 0.298329 1.4406e-05 0.000110922 0.000251962 4.21468e-06 5.3719e-06 1.38076e-05 0.00127682 4.64493e-06 4.32387e-06 9.11938e-06 2.80904e-05 0.000110922 0.00628005 0.00151522 0.00127682 0.00364689 0.0038835 0.000251962 3.76475e-06 0.000187165 0.00403961 6.33494e-06 8.3838e-05 5.81379e-05 0.0441278 0.000115922 0.00051123 1.4406e-05 0.000410215 0.0019794 0.000349016 0.000251962 0.0566856 7.8448e-06 0.00151522 8.43313e-06 5.74138e-06 2.80904e-05 2.09522e-05 0.00403961 0.000857904 8.84138e-05 0.000187165 1.32528e-05 0.000858618 0.00127682 0.0441278 0.000349016 2.80904e-05 0.000410215 3.76475e-06 4.21468e-06 0.00310284 0.00439847 1.32528e-05 1.32528e-05 3.81646e-05 2.09522e-05 0.00439847 3.156e-05 4.32387e-06 9.11938e-06 0.000858618 0.000857904 4.64493e-06 0.0671729 3.15261e-05 0.3398 0.00202135 7.76673e-05 0.000115922 8.3838e-05 0.00035504 5.74138e-06 0.000349016 0.000251962 0.00310284 0.000115922 1.4406e-05 3.76475e-06 0.000110922 0.000115922 6.33494e-06 0.235078 0.0019189 0.00576492 1.32528e-05 8.3838e-05 0.00035504 5.74138e-06 0.298329 5.3719e-06 0.0441278 3.156e-05 0.000858618 7.76673e-05 0.0019189 0.02163 2.09522e-05 0.0671729 0.000857904 3.81646e-05 0.0019794 
</DataArray>
<DataArray type="Float64" Name="cell variable 7" format="ascii">
0.357275 0.264653 0.176526 0.0863829 0.413855 0.109939 0.214434 0.109939 0.306453 0.285858 0.0738515 0.24144 0.142821 0.091923 0.203114 0.174715 0.334908 0.233945 0.203114 0.203114 0.214434 0.10127 0.2268 0.2268 0.633332 0.233945 0.290041 0.481302 0.233945 0.531783 0.340125 0.185875 0.103782 0.185875 0.262734 0.426674 0.311423 0.184332 0.172124 0.360012 0.288948 0.357275 0.511928 0.481302 0.185875 0.0813708 0.0788486 0.264653 0.225806 0.176526 0.129973 0.46057 0.259721 0.337987 0.172124 0.481302 0.0886341 0.15552 0.0788486 0.116913 0.203114 0.58017 0.091923 0.0863829 0.15552 0.214434 0.0779382 0.129973 0.227704 0.288948 0.184332 0.230311 0.255368 0.214434 0.544906 0.306453 0.311423 0.227704 0.255368 0.46057 0.259721 0.162493 0.233945 0.142821 0.255368 0.285858 0.091923 0.0813708 0.0738515 0.306453 0.290041 0.162493 0.311423 0.334908 0.103782 0.570965 0.633332 0.115625 0.230311 0.214434 0.230311 0.091923 0.413855 0.360012 0.184332 0.115625 0.24144 0.46057 0.264653 0.116913 0.214434 0.142821 0.148901 0.172124 0.543895 0.334908 0.214434 0.176526 0.0788486 0.142859 0.288948 0.2268 0.285858 0.329428 0.290041 0.172124 0.347352 0.203114 0.10127 0.225806 0.225806 0.148901 0.142859 0.290041 0.174715 0.0886341 0.227704 0.142859 0.091923 0.142859 0.142821 0.0989326 0.0779382 0.288948 0.214434 0.103782 0.174715 0.10127 0.347352 0.129973 0.2268 0.103782 0.360012 0.115625 0.0989326 0.340125 0.116913 0.142821 0.214434 0.0886341 0.0863829 0.109939 0.129973 0.0886341 0.2268 0.148901 0.176526 0.264653 0.0788486 0.311423 0.399197 0.488241 0.203114 0.306453 0.360012 0.360012 0.0989326 0.0989326 0.329428 0.511928 0.0779382 0.0989326 0.0989326 0.176526 0.259721 0.262734 0.176526 0.0788486 0.360012 0.129973 0.46057 0.116913 0.0863829 0.285858 0.227704 0.142859 0.109939 0.646851 0.139181 0.227704 0.142821 0.288948 0.543895 0.176526 0.184332 0.227704 0.255368 0.162493 0.148901 0.259721 0.225806 0.172124 0.184332 0.233945 0.357275 0.544906 0.357275 0.172124 0.203114 0.0863829 0.422896 0.357275 0.264653 0.255368 0.329428 0.139181 0.2268 0.340125 0.262734 0.148901 0.357275 0.118245 0.399197 0.0813708 0.091923 0.115625 0.0813708 0.24144 0.58928 0.184332 0.10127 0.46057 0.329428 0.347352 0.347352 0.285858 0.118245 0.15552 0.544906 0.667622 0.0813708 0.288948 0.185875 0.311423 0.357275 0.148901 0.0813708 0.399197 0.259721 0.262734 0.347352 0.225806 0.24144 0.255368 0.311423 0.184332 0.0738515 0.116913 0.262734 0.115625 0.0788486 0.142859 0.58017 0.214434 0.230311 0.531783 0.311423 0.184332 0.109939 0.306453 0.511928 0.15552 0.139181 0.116913 0.413855 0.184332 0.203114 0.329428 0.227704 0.0989326 0.329428 0.46057 0.109939 0.347352 0.340125 0.139181 0.174715 0.0779382 0.174715 0.172124 0.116913 0.142821 0.0779382 0.334908 0.511928 0.557964 0.337987 0.360012 0.543895 0.118245 0.184332 0.214434 0.0779382 0.0863829 0.116913 0.285858 0.0813708 0.0788486 0.103782 0.139181 0.184332 0.347352 0.290041 0.285858 0.340125 0.357275 0.214434 0.0738515 0.203114 0.337987 0.091923 0.174715 0.162493 0.422896 0.185875 0.24144 0.118245 0.233945 0.311423 0.225806 0.214434 0.413855 0.0989326 0.290041 0.10127 0.0886341 0.139181 0.129973 0.337987 0.264653 0.176526 0.203114 0.115625 0.259721 0.285858 0.422896 0.225806 0.139181 0.233945 0.0738515 0.0779382 0.329428 0.360012 0.115625 0.115625 0.148901 0.129973 0.360012 0.142859 0.0788486 0.103782 0.259721 0.264653 0.0813708 0.46057 0.142821 0.544906 0.288948 0.172124 0.185875 0.174715 0.2268 0.0886341 0.225806 0.214434 0.329428 0.185875 0.118245 0.0738515 0.184332 0.185875 0.091923 0.481302 0.306453 0.334908 0.115625 0.174715 0.2268 0.0886341 0.543895 0.0863829 0.422896 0.142859 0.259721 0.172124 0.306453 0.399197 0.129973 0.46057 0.264653 0.148901 0.311423 
</DataArray>
<DataArray type="Float64" Name="cell variable 8" format="ascii">