<VTKFile type="UnstructuredGrid" version="0.1">
<UnstructuredGrid>
<Piece  NumberOfPoints="    3411" NumberOfCells="    2500">
<Points>
<DataArray type="Float64" NumberOfComponents="3" format="ascii">
12.1829 31.0211 0 
14.8908 12.8622 0 
-16.9567 -20.1331 0 
32.02 -50.6712 0 
15.3789 5.08343 0 
-20.4476 1.52133 0 
-48.8572 -39.2359 0 
52.6164 21.5778 0 
50.0863 -3.33069 0 
3.40539 -46.5647 0 
24.6751 -1.74496 0 
-5.12404 -60.3059 0 
0.168474 -55.887 0 
45.3289 -12.0197 0 
26.1977 25.4478 0 
5.14452 -18.5562 0 
-38.3233 33.0895 0 
-11.8971 31.8395 0 
-44.5129 23.0268 0 
-42.8511 24.7562 0 
-6.75701 50.0652 0 
34.1603 14.6059 0 
49.3599 0.80907 0 
10.9077 1.49795 0 
2.71443 -55.518 0 
-21.1609 20.67 0 
-14.5958 -20.6206 0 
-25.7928 54.6737 0 
15.5458 -17.4364 0 
-1.63292 -39.8951 0 
3.10806 -33.5586 0 
-30.1609 -34.2081 0 
-52.1471 -21.8636 0 
-52.2043 -3.62658 0 
-51.0015 -26.8437 0 
-11.8291 -25.2153 0 
-13.735 45.4896 0 
16.5431 12.3403 0 
-9.30697 7.88157 0 
-37.6193 5.1651 0 
-29.2065 -35.0335 0 
-13.2097 -36.816 0 
-0.696292 -18.4784 0 
-39.2452 -20.2709 0 
56.7395 16.0859 0 
-9.85719 41.2576 0 
-21.731 -0.738206 0 
50.2344 9.50861 0 
9.23775 37.9824 0 
-21.7826 21.241 0 
4.47195 35.4938 0 
-1.85632 -55.9679 0 
-45.3563 -16.7026 0 
34.9725 4.92911 0 
-45.1517 -42.4706 0 
6.63259 -59.6637 0 
30.1561 33.9968 0 
18.2519 17.9011 0 
23.0861 -48.5116 0 
11.2225 -53.8882 0 
-34.9248 39.6636 0 
21.0754 -56.0431 0 
-1.26587 -55.78 0 
61.1911 -11.6215 0 
-20.5012 44.1076 0 
27.6542 -14.8204 0 
43.0934 -18.6258 0 
41.8236 -32.3683 0 
42.8798 -31.9572 0 
-32.7298 21.5128 0 
25.8699 -7.01016 0 
-61.1882 -14.4707 0 
5.56395 -47.9544 0 
-38.9697 22.684 0 
31.0396 5.29722 0 
34.0645 -5.26021 0 
-50.7371 -17.401 0 
-32.355 22.6562 0 
-7.53604 -37.0809 0 
12.8388 2.15333 0 
-61.3943 0.104856 0 
17.8693 27.2184 0 
-18.6991 -18.7235 0 
-34.902 13.631 0 
-1.12549 -14.7205 0 
2.88627 47.4282 0 
55.7785 18.2429 0 
-47.9533 20.6321 0 
54.2053 23.5004 0 
-1.50431 -37.0074 0 
-37.8923 -22.0817 0 
-27.7883 -57.032 0 
41.5418 11.0859 0 
13.758 22.4638 0 
-40.7321 -17.3742 0 
42.5523 38.6251 0 
55.8314 -4.06427 0 
-58.9722 -2.71831 0 
21.3602 55.0301 0 
-43.6014 2.8156 0 
13.678 -53.7029 0 
60.2569 -10.0828 0 
-26.4851 43.5385 0 
-26.8558 -8.58609 0 
59.6303 -7.16729 0 
-25.3794 -0.589916 0 
27.5366 28.045 0 
57.8936 -5.1992 0 
38.8673 19.1191 0 
-34.9309 29.3167 0 
-43.8496 -36.2084 0 
-32.2114 22.8488 0 
50.7583 38.4451 0 
50.6957 -15.0406 0 
30.5937 32.7108 0 
-0.334554 -26.0507 0 
-33.7645 40.0836 0 
13.9378 -46.6199 0 
-10.2486 -42.5119 0 
-4.72505 50.0735 0 
57.536 12.5118 0 
13.4953 -1.21107 0 
-44.4844 24.0622 0 
-1.72838 21.9658 0 
14.3266 -44.4869 0 
-18.6559 52.8488 0 
-30.2458 -40.1429 0 
32.9426 19.1301 0 
9.11241 10.8649 0 
-6.69394 59.9815 0 
21.4878 43.6607 0 
-41.8047 -2.42007 0 
20.6297 8.00073 0 
-22.6035 -35.0917 0 
-19.3686 53.8751 0 
-35.1941 4.38791 0 
61.2324 -11.8082 0 
32.3667 -45.3792 0 
8.52626 16.325 0 
7.13462 -4.92929 0 
30.9856 50.4971 0 
-54.8303 12.1584 0 
21.4907 41.9298 0 
-11.6083 31.5692 0 
-60.4298 12.704 0 
4.82612 59.7518 0 
-51.4461 24.8617 0 
-45.681 -20.6662 0 
-47.8458 -3.85465 0 
0.0229451 46.6132 0 
32.8392 38.3059 0 
56.242 -12.8344 0 
-50.8675 -4.81599 0 
19.8332 -29.9204 0 
-42.4142 -35.7021 0 
28.3181 18.3529 0 
16.6588 35.2463 0 
36.8266 22.9096 0 
-45.6275 38.7468 0 
31.61 12.0378 0 
-42.3293 -7.57423 0 
-23.3606 -27.5809 0 
36.6829 -0.83689 0 
15.2432 28.6124 0 
-6.39438 -53.7604 0 
41.3325 -12.474 0 
35.8467 25.0607 0 
33.1818 -34.1974 0 
2.65834 33.3469 0 
-32.7478 -48.1649 0 
50.2096 13.4718 0 
-50.1302 31.2209 0 
40.7724 42.813 0 
-24.402 -49.1461 0 
11.5534 -14.3423 0 
-17.4272 36.8649 0 
-26.944 48.1726 0 
-51.956 5.2699 0 
19.9698 -35.3583 0 
27.4514 -16.3236 0 
6.90064 -32.331 0 
1.47858 44.9947 0 
-15.7962 40.4626 0 
-2.82974 7.8658 0 
-21.4781 36.202 0 
41.9879 -40.5214 0 
27.1668 -27.8524 0 
20.3382 55.9758 0 
20.5132 -19.7523 0 
-52.4292 -25.0629 0 
4.50471 41.7153 0 
28.2725 11.0976 0 
-10.6149 -31.7878 0 
4.18274 54.3123 0 
-51.3233 9.91334 0 
33.2725 19.5852 0 
11.5376 23.0102 0 
-36.4575 17.2764 0 
6.67851 8.40507 0 
46.5742 -22.6118 0 
11.8784 42.9289 0 
56.4009 -5.02801 0 
-26.6438 21.8318 0 
-27.5659 -28.0448 0 
-7.81741 -21.2468 0 
-3.03604 27.2331 0 
-48.0921 -26.0484 0 
40.9133 -32.4183 0 
-4.0813 -9.50195 0 
0.389245 -26.253 0 
-9.44402 -43.2311 0 
-35.411 -36.43 0 
-18.4407 51.6562 0 
53.7335 -30.4759 0 
12.3671 46.6285 0 
37.2804 -22.6617 0 
-12.3591 59.3376 0 
-10.9481 34.8114 0 
-15.4648 24.0306 0 
-9.06685 48.6403 0 
-26.1388 36.4967 0 
-51.0166 6.23256 0 
44.0413 4.63787 0 
-11.9484 13.9462 0 
22.702 45.7981 0 
30.9655 5.62211 0 
22.9805 -53.1029 0 
28.8269 30.638 0 
-58.2074 -18.9437 0 
-8.60575 42.9038 0 
-4.19088 38.0574 0 
30.8806 -4.20757 0 
-25.8492 6.96974 0 
-34.6306 13.2355 0 
-48.4432 -27.0837 0 
-31.1819 4.0555 0 
26.0413 45.2614 0 
-14.8763 13.1439 0 
-44.9942 21.9959 0 
-39.4514 -31.1239 0 
-22.9219 -32.0481 0 
-2.16549 39.6445 0 
-35.8231 -13.0915 0 
13.458 -2.05754 0 
41.7522 -20.972 0 
-6.64782 -15.9176 0 
3.66039 23.3521 0 
-10.4106 -39.9905 0 
-18.0189 34.7407 0 
-42.0105 41.4164 0 
-48.1179 0.809796 0 
33.5675 -38.1948 0 
13.9904 13.8046 0 
51.2987 -19.7879 0 
13.8328 -39.1808 0 
-16.8919 -43.8123 0 
-56.3337 -10.9096 0 
19.6357 -56.9405 0 
49.5556 -2.89638 0 
-27.3019 -27.0068 0 
-31.067 -34.0244 0 
10.9007 -13.8237 0 
-49.1153 31.3368 0 
41.4185 -2.1375 0 
7.06751 -30.5178 0 
29.8399 -19.2622 0 
-15.7248 18.5033 0 
-25.4928 -39.4383 0 
-14.3428 1.05088 0 
50.6622 -27.1889 0 
-24.738 50.401 0 
-32.1722 -49.3509 0 
-27.1934 -4.17782 0 
-42.3005 -38.3024 0 
27.696 17.8542 0 
-0.0654298 -34.128 0 
-30.1848 -41.8036 0 
-46.398 38.4388 0 
-20.3762 42.7374 0 
-11.2562 -9.08315 0 
34.294 -50.7594 0 
9.59074 32.4838 0 
-9.44432 -31.3481 0 
33.1899 -8.67965 0 
16.6636 -11.3733 0 
-15.7118 45.4273 0 
45.5445 -2.54121 0 
-49.1989 -16.9015 0 
37.138 -6.77485 0 
-26.624 18.067 0 
-56.8354 -25.3576 0 
-7.95336 -46.3937 0 
-6.12849 31.8526 0 
-32.184 29.9019 0 
-51.8916 10.0851 0 
6.60104 6.1326 0 
-21.0455 -49.4764 0 
0.296754 45.7027 0 
-19.513 25.8629 0 
-9.6194 -52.2292 0 
-14.0224 13.6148 0 
12.6398 35.5606 0 
-13.0012 -52.6545 0 
39.6825 17.6243 0 
5.74056 61.9617 0 
34.969 -29.4218 0 
12.5475 55.7953 0 
2.90821 24.0291 0 
16.2784 43.1507 0 
38.8807 44.9355 0 
49.8265 13.4857 0 
-14.8046 61.212 0 
-52.5804 -0.0473323 0 
21.9629 -48.6022 0 
25.8105 -9.11232 0 
-42.9587 7.73015 0 
-28.4408 23.0672 0 
-10.4029 -23.5064 0 
51.7841 -16.9079 0 
-13.9833 -60.881 0 
42.0072 -39.3483 0 
51.1582 -11.6481 0 
14.0965 -33.36 0 
40.2893 3.38063 0 
8.55594 -62.626 0 
-0.992093 -5.15221 0 
-17.1238 -14.5383 0 
12.1301 -38.6684 0 
31.1798 -51.7112 0 
-43.8526 1.9462 0 
29.7222 -20.4417 0 
-34.5216 -3.38296 0 
3.4065 -15.2796 0 
-41.8557 -44.441 0 
31.8695 45.789 0 
31.5613 -32.6379 0 
-46.0302 13.5302 0 
-31.9654 47.7476 0 
0.0307002 55.6113 0 
-34.2399 28.1459 0 
-8.18266 49.4294 0 
-0.628716 25.1313 0 
29.8336 -20.0844 0 
1.85357 33.195 0 
-11.801 -52.653 0 
27.8631 50.4425 0 
-3.46432 30.1562 0 
55.2594 -24.1086 0 
-14.2972 10.0568 0 
46.2496 14.6836 0 
43.845 6.27393 0 
-26.6459 9.93452 0 
-24.8256 10.5185 0 
-4.82445 -9.76237 0 
13.483 -18.8789 0 
-26.7214 38.217 0 
51.9995 -19.6427 0 
-0.326011 46.7414 0 
-10.3739 -23.1267 0 
23.7187 -51.8561 0 
9.54724 -10.404 0 
3.58561 23.4688 0 
-50.6688 11.185 0 
-32.0129 9.74951 0 
21.261 -22.7763 0 
4.97643 28.628 0 
-12.9022 59.4807 0 
28.924 39.1706 0 
-32.949 1.27865 0 
1.50014 -0.926643 0 
-3.9992 -31.656 0 
30.2804 8.46356 0 
-24.1535 -49.1984 0 
21.5914 50.9607 0 
6.42949 -31.9612 0 
-34.1979 -39.5298 0 
37.1515 -38.8808 0 
0.673166 -56.0611 0 
-17.3109 20.2394 0 
5.10623 -9.14377 0 
55.3657 10.8331 0 
-42.2735 41.3743 0 
20.76 14.3233 0 
18.9722 9.43507 0 
12.7798 -13.3807 0 
-45.7007 27.4085 0 
-17.0112 6.91691 0 
36.9882 -12.7828 0 
-15.3255 52.2236 0 
-12.4147 -15.7903 0 
-42.6561 19.5158 0 
-7.28786 5.96085 0 
13.9863 48.2368 0 
-28.4004 -10.7703 0 
27.786 -14.0453 0 
-60.2384 3.83602 0 
-10.0497 7.89651 0 
-50.6526 -32.3371 0 
-19.1042 51.0278 0 
-30.2321 -41.5874 0 
-10.2456 26.2497 0 
-28.0123 -38.2157 0 
15.7711 56.6128 0 
-18.5416 -51.1882 0 
4.29597 -47.9497 0 
-19.6565 -44.3868 0 
40.5405 -50.2116 0 
-38.1878 17.3484 0 
-6.46933 -15.3017 0 
18.7697 32.3735 0 
-59.1962 18.536 0 
-8.46376 9.29577 0 
46.5191 30.3357 0 
-41.7712 31.8551 0 
-28.8311 -51.0832 0 
-23.9557 30.8077 0 
-8.54174 0.0503914 0 
0.338594 14.7691 0 
-10.288 -40.7223 0 
-10.5055 -54.6007 0 
24.449 -40.1744 0 
-3.15188 0.10587 0 
11.502 4.65118 0 
38.2862 20.1882 0 
-25.0497 56.2739 0 
-4.33067 36.5254 0 
7.57407 -33.0824 0 
-10.4516 -16.0012 0 
-40.3672 32.6124 0 
12.722 22.1824 0 
27.3199 -44.2817 0 
-47.2544 29.286 0 
-0.59717 15.3047 0 
-15.6467 13.746 0 
-32.8585 -1.87458 0 
24.4653 -30.6704 0 
-12.2828 -2.01514 0 
9.24679 -9.68425 0 
-33.0278 49.929 0 
-50.0109 8.28199 0 
-16.6943 -28.4004 0 
8.17324 -46.7385 0 
11.485 29.2672 0 
10.3589 -28.6293 0 
31.7115 -32.3447 0 
-39.4716 -32.721 0 
-17.8013 -11.6349 0 
-42.7267 -36.4625 0 
-17.7812 -27.9878 0 
-0.060596 15.5329 0 
-58.09 -24.2049 0 
41.884 -19.2341 0 
51.1587 2.09883 0 
1.93494 58.6501 0 
39.2737 34.7795 0 
29.9731 -33.0857 0 
26.6864 -44.6695 0 
21.2239 -30.749 0 
-7.99616 -61.274 0 
27.0763 15.9756 0 
-57.0186 -17.4303 0 
-41.0043 -29.5796 0 
50.4848 27.9534 0 
-36.8585 48.0231 0 
30.8587 -45.3458 0 
19.6272 -35.9659 0 
-0.126481 3.10348 0 
43.6329 21.295 0 
42.1922 39.466 0 
22.4097 8.75631 0 
-46.8936 -17.4299 0 
-16.3278 61.2 0 
24.2661 -39.1535 0 
16.7887 20.5545 0 
16.5364 -4.92112 0 
-13.4982 -31.5139 0 
-2.19393 -33.2514 0 
-14.8391 24.8666 0 
23.1197 -25.6338 0 
4.59994 35.7692 0 
21.1436 55.4304 0 
-7.86101 6.63536 0 
20.445 -29.9729 0 
-16.5199 -8.75555 0 
16.0856 56.8027 0 
-12.2758 -8.18514 0 
-11.1391 -9.97927 0 
41.7164 -10.1533 0 
7.95057 -20.371 0 
-12.7368 -37.9227 0 
32.6419 4.04641 0 
-42.3438 -24.8671 0 
-4.49728 50.0593 0 
54.3692 25.6161 0 
[...]
<CellData Scalars="wall variable 0">
<DataArray type="Float64" Name="wall length" format="ascii">
3.00559 6.82917 1.47921 0.85744 0.957606 2.34562 2.00802 1.59655 3.87786 0.567786 4.98723 1.04267 9.19469 3.33491 6.26797 0.763563 0.899808 4.84197 3.36007 2.64225 3.68259 3.35325 6.29506 0.364298 1.73793 1.15911 2.64348 2.19656 0.653005 0.885652 3.21441 0.944197 4.53922 5.09589 0.715091 11.4575 0.792068 2.82371 3.39706 5.81448 0.345054 4.77184 2.5751 1.3403 3.0527 8.26162 3.08667 5.26653 1.67491 2.35788 0.715091 0.45465 4.13964 0.29431 6.66813 3.51545 0.33012 2.97459 5.7891 1.36842 1.7376 1.87922 1.71616 0.577781 4.1994 5.29085 1.63426 7.24254 2.1496 1.13179 6.47057 0.843951 1.12838 3.35974 0.618627 5.30512 1.40662 6.87999 1.78763 1.65498 8.44101 0.281141 1.17035 9.80997 0.81696 1.95778 5.07898 4.29053 3.67855 1.77401 2.57981 5.17415 0.641729 2.44899 0.882713 4.66566 0.0253373 2.20892 6.46888 0.526946 1.79029 0.648513 8.52751 2.86613 7.30023 5.02307 4.12732 0.505827 1.69157 2.32762 0.706391 7.80918 0.264143 8.7929 3.70743 2.82184 1.83818 5.19057 5.09257 0.641729 0.729793 7.91789 0.734891 2.82184 2.87464 2.23577 3.07608 4.20591 4.48494 3.04731 1.41247 2.6163 1.48006 2.88207 3.66814 0.939842 5.94699 1.21046 4.26556 5.06386 2.45405 3.00981 1.53457 3.41923 2.45501 0.757321 4.59186 6.21099 0.816509 8.90102 0.769536 1.71865 3.68456 5.83307 0.917185 8.31738 0.943953 5.83012 1.08568 2.64935 1.10652 9.07606 0.272409 3.91233 7.72605 1.40343 7.96094 1.03114 0.830166 1.73665 6.45666 1.29595 0.916906 3.19294 2.36382 3.48154 5.04218 5.25302 3.02186 2.39432 2.25609 2.62266 1.01488 0.811511 4.74365 5.1341 0.53631 4.84458 2.45027 6.82525 3.14519 4.20584 4.51666 3.98473 2.56937 3.44566 6.67097 2.10828 0.394768 1.50353 2.22307 1.08001 4.51666 7.53498 2.54933 0.271256 12.4664 1.02408 13.7216 0.619982 0.540855 11.0047 2.05762 3.04995 5.04218 1.60815 3.45094 8.02582 0.170866 6.19327 3.14519 0.754707 3.42177 8.09441 1.85631 6.42442 4.5505 4.78507 1.01389 9.53449 1.11368 0.679029 1.92186 5.06406 3.33761 0.0958494 0.85769 2.67717 6.70585 2.63606 2.17041 5.05814 3.15399 0.351446 1.08706 6.45807 0.957606 8.83066 2.16762 3.98473 1.08001 2.33676 2.63606 0.295287 10.6663 5.90028 4.3797 5.7891 0.140291 7.14195 2.97932 3.29174 6.2244 1.83305 5.79567 9.35097 8.23449 1.83951 5.05814 1.93383 9.19955 3.92276 7.04147 0.876157 5.81312 3.53291 3.68689 1.24521 0.337923 3.04121 1.32886 2.05762 2.77737 1.29383 0.922756 2.87924 0.959783 0.29431 4.3797 4.28212 2.35502 4.6266 3.8414 7.24446 2.5883 4.13964 0.842046 2.54828 3.40796 4.07414 1.95015 3.68687 8.55225 7.67702 1.17613 7.1456 6.18219 0.577781 2.63107 0.522346 0.293871 2.51734 1.12706 3.37821 4.75018 11.0875 0.406731 1.63839 1.92235 4.59181 1.24379 2.35896 9.07606 1.79903 5.44825 1.56865 0.816509 2.01305 8.36037 1.73793 6.59377 0.0540628 6.30646 0.843951 0.105162 0.669441 2.0841 0.834526 8.71372 1.10864 0.93928 5.60196 1.89704 1.28863 1.91697 10.8748 0.87072 2.45405 4.8796 4.70712 1.60339 3.01601 0.661901 1.24521 6.8121 7.27301 0.97317 8.29099 1.52358 7.04147 2.80086 0.734891 6.60711 7.57821 0.195857 2.3387 1.83818 0.87216 4.79861 0.907086 4.45635 1.81425 8.79137 0.845898 9.60653 1.70114 7.34799 0.980655 1.80808 3.55309 0.296729 1.65885 3.12104 5.28197 4.52542 0.866693 1.72516 3.51545 2.10842 4.8796 5.06386 4.17794 1.85965 3.88993 4.10574 2.63919 4.20591 0.175959 4.96443 5.58561 1.35323 1.81292 3.02331 7.82679 1.96239 3.60944 6.20584 1.89069 0.703372 3.79279 0.427712 1.93536 0.304014 8.86609 1.28083 3.08216 9.60653 2.10279 7.08133 2.40873 0.706663 7.42987 0.949479 2.43286 5.09589 1.81846 2.62266 1.53905 3.65825 0.406241 2.82038 1.71865 3.41845 0.487452 2.50902 3.87843 5.98988 2.5731 4.28605 1.24818 0.7531 1.9546 7.38707 5.79345 1.77401 1.09671 2.6439 6.56475 0.394768 7.88129 1.7109 3.52127 3.6289 2.498 3.56811 1.80808 1.02242 3.15432 1.74484 5.07898 0.206984 8.85373 0.710324 1.53905 2.25609 1.11459 0.172374 0.943953 7.10632 1.58757 1.40662 5.21055 3.18943 7.86516 0.17152 11.668 3.37937 1.99167 6.60875 0.478393 4.69722 2.91605 3.53831 1.20037 13.7216 5.54088 1.82681 0.725967 3.07608 6.61113 1.9392 10.5626 1.92868 10.1985 0.477666 8.02582 2.72383 7.40372 1.06599 1.61362 1.25284 0.836767 11.3562 0.164177 1.89704 6.52105 1.5716 2.6094 0.698405 0.370946 0.33012 1.72516 4.26556 0.44101 3.42076 0.822918 8.67406 0.287958 3.41268 0.963742 3.13186 3.88668 1.35162 10.8014 0.765041 1.04933 3.4207 0.763103 7.917 4.12797 3.13244 1.15603 7.99926 0.533726 3.28818 6.12104 0.706391 6.30646 0.728355 7.30236 5.33536 1.63426 0.861738 0.206984 4.19211 0.917185 4.22044 1.11142 8.0595 1.35005 8.36037 0.222561 3.5645 2.8495 4.17705 4.17943 8.79137 0.842839 10.5626 0.553857 3.36376 3.42177 4.28264 5.25537 1.06862 1.27776 1.7109 2.60631 0.281141 1.9392 3.25075 2.37614 5.6366 0.669441 8.85318 1.57987 2.22307 2.14765 5.08934 4.09771 1.57987 5.45811 1.13179 0.826563 4.69149 2.23116 3.44566 4.68703 0.532112 2.05164 5.37072 0.690506 0.0448595 0.271256 7.31065 2.85274 2.92292 2.80602 0.666926 9.52284 4.33777 1.1523 5.80164 1.61797 3.87843 0.554422 4.18679 0.701716 1.03114 3.22801 2.32216 6.94496 0.527416 6.40318 7.34799 0.847807 3.35974 7.2938 0.980655 7.2938 1.12838 1.79618 5.67778 0.687731 1.02242 6.10847 2.55142 4.56405 6.46888 2.54156 5.53066 0.535541 4.84939 2.54355 0.873526 0.803428 3.4543 1.23429 1.68728 6.54024 0.226172 9.37049 4.80411 0.860549 6.10847 2.20892 6.85034 2.63919 3.07192 1.06599 2.99929 1.58504 4.48494 3.04589 0.39785 1.40042 1.98646 3.02331 6.85885 0.943932 0.225729 1.35162 1.69314 2.69121 2.86613 1.53624 7.57821 3.08244 6.70883 0.161351 3.84598 0.540855 4.102 1.56243 7.23132 4.71343 6.4251 6.52105 5.60196 9.42604 4.69162 11.0875 0.52795 2.01305 4.25097 0.583119 1.48006 9.98601 1.55596 0.803428 4.85275 5.77848 0.170421 2.28462 4.70348 0.922756 4.36741 5.16444 1.56865 2.26836 1.01389 6.87226 8.90102 2.10015 1.56243 4.39328 3.04731 1.58504 7.55775 3.8857 6.03774 2.26714 5.37271 0.963742 0.291812 0.175959 4.10786 4.92632 2.30146 1.53529 0.155014 10.3522 1.3879 10.4 0.885753 2.42038 2.34237 2.40862 2.52112 0.272409 2.35896 0.461497 4.22481 4.51644 0.197889 1.76491 1.24295 0.899808 7.14724 1.8926 0.790414 2.45501 3.86417 0.573544 1.37139 5.73742 4.95484 1.3231 0.655572 0.949479 0.117744 3.24137 3.22284 3.84478 2.35788 4.50296 1.06338 3.18943 1.2186 0.45832 11.4575 5.06406 4.0458 3.5152 0.383949 5.906 0.919336 5.17172 3.96407 1.11368 4.27141 1.79903 1.35005 2.49307 6.08535 1.08706 1.18994 2.35793 0.672817 3.96528 2.43622 1.46378 0.801984 6.04762 8.71372 2.57648 7.71276 1.9223 1.52421 9.72998 1.5716 9.42604 0.93928 0.863825 0.703372 1.03705 1.08257 2.82546 7.12401 0.406241 9.05186 2.35793 6.29061 3.06848 3.84491 6.46769 0.554422 2.50902 3.88534 3.1145 4.97064 3.00623 6.47155 1.20073 7.44933 3.62873 0.448415 7.67702 0.422365 0.822918 3.82977 5.98552 2.00802 3.43665 2.49307 1.22454 1.70963 0.622621 0.338231 6.15602 3.37036 8.23945 0.347299 6.47155 0.427796 3.8414 0.485674 7.72605 1.99232 7.865 2.40862 7.5774 0.765041 7.0261 5.04825 5.43239 0.944586 6.82525 1.05091 4.59181 5.05074 0.696125 0.626631 4.62245 5.30233 5.00013 0.618128 9.80997 0.285802 7.38707 2.56786 4.42974 2.80602 3.60157 7.00365 3.86417 3.41923 2.33594 0.706663 2.18527 0.428702 0.319081 3.57233 0.859812 4.02491 1.22294 0.532112 6.50118 4.77184 1.47713 1.3219 7.23508 5.87486 2.89288 4.70708 3.9115 1.13194 5.37072 1.05671 8.83066 0.85744 1.03504 4.97064 0.751907 1.99232 0.831527 4.91769 4.47514 7.71276 0.86374 2.51734 0.105162 6.47057 5.45811 8.85318 3.42015 7.00795 0.622621 0.517522 1.04267 4.15117 2.7485 2.6548 5.67778 1.26636 2.30146 5.60477 0.249296 5.57516 2.14765 1.50353 2.498 0.920189 4.19154 0.764377 3.99348 0.938869 4.05134 2.75996 5.2741 2.60371 5.79567 3.40516 3.21441 4.89495 0.146505 4.59186 3.79285 1.65885 8.37008 0.401967 0.539337 6.37975 1.7376 2.21253 8.73793 2.04908 5.16444 3.45611 0.97317 0.844758 2.22828 2.04499 2.36933 2.51386 2.55416 3.5033 7.65209 1.3403 7.74686 0.644242 4.17794 2.6163 1.5922 3.79279 0.863825 1.10864 6.04762 7.5382 0.364298 6.6753 0.710419 4.21527 0.488627 6.59377 5.81448 5.12495 0.907086 0.560194 3.923 0.842046 0.45465 0.589746 10.9096 0.783044 2.7404 7.39175 1.08257 1.78022 5.87772 1.13685 2.97893 0.826563 2.1496 3.12323 0.70492 1.524 3.03694 3.07456 3.22284 7.5234 0.52795 4.75018 8.23189 2.3106 1.69952 2.73825 3.13186 5.37271 1.46064 3.33491 4.73895 0.588369 6.50249 3.26076 4.75669 3.76254 4.8697 1.56201 6.8121 3.68689 6.6096 6.24069 3.28818 1.92184 0.64767 9.19955 2.44899 5.09257 4.33751 2.51987 2.21977 1.2244 0.481256 4.04887 0.526946 4.56405 1.10007 3.29174 4.61664 1.56761 4.33751 5.19057 2.3387 0.603705 11.668 6.19327 1.3636 0.343947 7.53498 4.20584 8.38498 2.32013 2.77737 4.11595 3.60944 2.26836 5.44825 4.27141 9.53449 3.53174 2.5731 0.285802 2.92292 2.15959 7.08133 4.71738 0.524435 3.84478 3.07456 1.68405 2.88207 0.170421 0.888739 4.59929 6.29061 1.18994 0.351446 6.13669 0.938869 8.0066 1.78763 2.7849 2.21885 3.5033 1.02974 2.85274 6.38899 3.04589 0.339242 3.60157 2.40873 2.15959 0.655572 7.31288 4.28605 3.53174 2.10279 2.33594 6.21099 0.146505 0.932795 2.4618 0.117744 7.42987 0.560194 4.79861 6.26771 0.314561 8.87054 3.23057 4.95449 1.63839 5.64395 6.57714 2.26919 0.56885 4.10712 5.08934 5.57516 3.91292 3.73445 0.983093 4.22481 5.43882 5.22865 1.33818 3.22801 1.19067 6.50249 0.165197 5.15942 4.85275 0.873526 2.81595 4.13039 2.97459 8.67406 0.422365 8.55225 1.03345 0.140291 1.03781 7.55775 2.99929 7.40372 2.70667 0.669515 2.29279 2.60005 3.69172 2.28462 2.04908 3.24757 5.54088 0.0540628 0.488627 10.5597 0.679687 1.35323 1.83745 0.801431 6.41097 0.728355 2.48969 3.63121 1.3219 2.20033 0.640621 6.42442 1.22294 6.44566 0.6688 2.26919 0.249296 3.93447 2.89288 2.05164 1.15118 7.78358 0.792068 0.45832 1.02141 1.82203 7.94772 0.347773 7.92399 4.50296 1.67491 5.13665 0.478393 1.02408 1.32886 1.12706 0.86374 2.57648 2.89686 2.18527 5.62796 7.61223 2.56786 1.9546 1.92876 2.21253 1.36842 4.56657 4.15304 1.57492 4.23763 0.478794 2.48969 1.85631 3.36084 0.232453 8.63338 6.68406 1.28863 0.164177 1.0311 5.00013 4.29178 4.71305 8.86609 1.89772 6.09395 8.24072 2.44311 2.71769 10.8748 2.75599 7.14724 0.763563 6.80095 3.31866 8.21626 7.42548 4.10875 1.4207 0.0342004 3.92753 6.78113 2.60005 0.996074 2.90113 1.60339 1.3636 0.170866 1.52988 1.15099 0.860109 2.3106 1.45431 7.83511 7.15447 5.1341 0.944586 1.49209 5.11808 3.58707 5.62796 6.50118 4.68703 0.603272 1.62398 2.23116 0.537515 0.598303 2.60972 1.30023 2.87144 0.612384 6.67097 4.21527 4.90716 1.37139 1.4959 10.5597 2.31766 6.96802 2.8495 0.716571 6.52818 3.7455 1.68728 0.817166 3.84488 6.5155 0.287045 2.01157 2.31766 0.881776 4.0959 3.62759 5.53066 2.34996 5.43882 0.461497 2.75599 5.88891 1.19426 0.230613 0.976544 0.301744 7.24446 0.427796 3.00623 1.03504 1.47921 6.36143 3.93447 4.19154 5.21633 4.70708 0.681572 4.44236 0.888739 5.77848 5.15942 0.52414 2.29279 6.61113 2.23577 4.47405 2.57981 0.482418 0.0554029 0.996074 3.59022 4.22502 2.64225 2.39669 2.54903 0.859812 1.82203 6.72256 0.618627 0.847807 1.70114 3.08216 0.63727 0.881101 0.885753 2.50686 4.12797 1.00433 3.15432 0.687731 2.6548 0.560896 7.0261 2.33242 4.29178 5.30233 2.40958 2.87144 4.98723 5.39228 2.77083 4.15117 3.88668 4.73895 3.36007 3.11362 1.69314 0.766743 4.1994 6.18219 0.686879 1.61362 3.07192 4.10574 2.01157 4.10274 0.919336 4.17705 6.96802 3.43336 1.354 2.1934 4.38125 1.15603 4.13652 3.45611 4.36741 1.29383 2.32013 0.424349 8.29099 0.343947 7.83511 0.866134 0.603272 7.31065 2.54933 6.33836 4.52542 1.65513 3.59022 3.57233 5.49899 0.63727 1.28083 4.71305 1.09546 5.70105 2.32609 0.264143 0.772136 0.876157 1.52358 0.424349 8.38498 1.96239 4.52271 3.42015 1.36923 7.69349 2.68594 0.870123 1.354 10.6438 1.02141 1.2186 5.21055 5.30512 6.72256 0.850948 9.52284 2.93676 0.648513 8.2484 1.29782 0.763103 4.99905 4.13652 3.13244 2.32762 1.77164 1.19426 0.608848 1.11561 0.553857 1.9392 2.24331 2.89252 1.32978 7.76581 2.81619 1.62935 2.44311 3.02589 5.69769 10.0051 3.21644 5.10166 0.944197 3.40516 1.83305 0.997529 0.232453 0.956485 3.5152 4.32612 0.939842 3.96157 4.91769 0.293871 3.66194 2.8197 4.69722 5.13665 5.26653 0.428556 4.08378 5.79196 1.49209 0.626631 9.1815 5.60258 0.161351 1.44053 1.92184 0.533726 0.749254 6.6096 3.53291 0.96912 6.85034 0.0253373 0.227339 4.15304 2.07495 1.85965 0.644242 1.59622 1.36289 0.539337 4.74207 4.71738 4.44236 2.75625 1.22452 6.56475 0.478988 4.89495 0.885652 3.94431 0.959783 0.451485 3.92753 4.70712 2.10842 6.66813 0.860109 9.61408 0.459956 6.45666 4.49568 1.69952 6.6753 6.29506 6.67562 1.8926 5.83834 2.88836 8.7929 2.32609 2.7485 2.77083 3.97634 5.02307 2.13969 1.76491 8.5236 5.21633 0.920189 3.6289 0.692815 9.4428 3.9115 1.68328 7.10332 1.96113 7.50085 2.20338 3.30724 7.59197 2.82546 7.39175 0.801685 1.11923 0.383949 3.66194 0.522346 4.69162 7.45315 0.772136 7.80918 6.12104 6.24069 1.93383 1.23221 1.52421 1.26121 1.524 0.684514 3.23135 3.55309 4.2551 3.30582 5.55979 2.75996 0.490005 9.87958 6.02078 0.764377 1.96178 1.9392 8.44101 2.87152 7.44072 0.337923 0.661901 6.77818 1.35595 0.155014 4.47405 2.87464 3.70743 5.17415 1.008 1.36923 1.14372 3.10861 3.87786 1.58653 5.87772 1.52988 8.09441 3.36376 6.88205 1.15099 6.88205 1.27776 4.02706 9.61408 4.57176 4.74365 7.20412 0.817166 1.23429 1.43475 7.30236 6.41097 5.10978 8.41588 0.773574 5.75028 2.22828 2.36921 3.08244 3.09968 5.11808 5.79196 1.09804 0.323076 5.69106 5.04072 4.61664 2.97932 2.60371 0.478988 2.6439 3.26076 1.19067 6.40318 0.655068 2.1934 0.870123 2.68983 0.621221 1.05091 2.45027 7.59414 4.43065 1.15118 2.75069 1.3879 1.24379 0.94877 3.02186 4.57176 3.4543 0.662298 1.5255 7.42548 1.36112 6.11278 3.7474 0.960945 4.28597 1.74045 5.33536 1.43475 1.0932 3.12323 7.24254 0.662298 9.37049 2.11989 2.49753 2.10539 6.84964 0.995345 3.39706 3.23843 1.37055 4.45635 5.12495 1.69789 3.84488 7.20412 0.811511 5.1517 3.21644 0.512794 7.86516 1.06338 7.92399 2.76032 0.633233 7.27301 1.56201 3.09008 6.94496 0.0554029 9.45413 3.02589 8.24072 1.91697 2.90113 0.482418 4.66566 1.07319 5.69769 9.45413 0.681572 9.57151 1.87922 6.37975 2.75625 0.643194 10.8014 0.225729 3.00696 9.07793 1.34932 4.84458 1.34171 1.92868 0.842839 1.81425 1.37055 0.656 7.59414 2.19395 9.04037 1.11459 2.39432 0.94877 8.21626 0.277744 5.1517 1.01488 1.81846 4.53922 5.10166 2.33676 12.4664 0.0448595 2.3445 9.35097 2.17041 1.14372 10.6438 3.43336 4.99905 2.13863 0.684514 7.5234 3.24137 2.4618 7.44543 9.07793 0.863365 0.729793 0.725967 3.60806 0.773574 6.69607 2.05118 0.853718 1.96113 4.79938 2.68983 2.68594 6.2029 0.794444 5.32341 2.91605 2.8197 3.08667 2.5883 2.32214 7.45315 0.583119 0.606082 1.43814 3.84491 2.46111 1.48561 5.05074 1.92235 4.95449 4.9726 2.81595 2.54355 2.47038 3.46374 2.71845 6.26798 3.65825 0.710324 6.01225 0.672817 9.05186 4.33777 0.850948 3.4207 4.79717 0.39785 6.38899 4.19211 7.10632 8.31738 0.487452 9.37397 0.0958494 4.28838 2.46111 3.88534 0.451485 2.87924 4.70348 3.69172 6.78113 3.99348 6.02078 1.65498 8.0066 1.68328 4.2189 4.96443 0.291812 0.0323892 3.76254 1.97298 1.30023 8.46761 2.43622 0.834526 6.68406 2.33242 2.36921 0.844758 2.80086 3.92276 0.64767 1.44053 6.70883 1.77521 3.81954 4.94083 7.44933 3.46393 3.62873 4.94083 0.606365 10.9096 1.21046 1.16942 0.679029 3.96407 4.06355 9.98601 3.4624 0.287958 0.643194 3.06875 3.53831 5.32341 0.999584 10.7015 2.19656 2.43286 3.06848 4.59929 1.36274 0.787817 8.50446 0.174997 3.7474 2.61897 1.7923 2.11989 0.226172 2.01305 2.73825 4.49568 1.73665 6.22533 1.98646 8.57479 0.246898 4.10786 7.82679 5.83834 5.73742 4.90716 0.710419 1.34932 6.69607 3.09968 4.102 0.619982 1.20037 3.06875 0.230613 7.76581 5.28433 1.11758 4.42823 4.38125 0.655068 0.527416 3.09008 4.8697 0.749254 7.99926 5.46498 6.77818 3.01601 0.633233 2.32216 1.33818 4.02491 2.54903 5.15646 6.44566 4.13039 6.26798 2.12057 1.17613 6.41981 6.54024 3.7455 0.416937 4.5505 0.640621 5.58159 0.787817 4.43065 0.656 3.23843 2.82371 7.78358 0.289954 2.56424 0.490005 4.05134 1.02974 2.55416 8.36964 1.41562 7.14195 1.03345 3.68687 5.91485 3.37821 7.61223 1.62398 0.866134 1.45431 8.23189 4.52271 1.93536 3.49505 0.338231 7.00795 2.34237 9.04375 1.36152 0.831527 7.5774 8.41588 4.88932 2.05118 4.08093 0.70492 1.0932 2.69121 3.11362 4.84197 1.24295 2.13969 7.30023 3.41845 0.769536 6.87226 0.85769 9.37397 5.04825 0.560896 5.60477 4.92632 0.246898 0.398133 3.43665 2.34562 6.45807 6.08535 3.58707 5.69106 2.9171 1.19128 2.89252 0.920017 2.24331 10.1985 1.34171 0.53631 7.15447 0.920017 2.37614 1.26322 3.30582 0.368056 0.789215 2.68481 0.809453 0.295287 6.70585 0.781401 1.15911 2.0841 4.09771 4.10712 7.73265 1.09546 6.09395 5.09982 3.65977 2.48806 1.22571 7.9415 2.44329 3.46374 2.45208 1.00433 7.917 1.29782 0.487803 2.4097 4.29053 1.74484 2.15724 3.40796 5.02014 1.23959 0.254258 6.03774 1.41308 5.25302 3.04995 0.477666 1.12522 7.9415 0.811037 5.08222 5.83012 0.172374 9.04037 3.62216 3.3957 4.95484 0.524435 4.74207 0.401967 1.12221 7.65209 2.21885 7.31389 0.836767 1.46117 8.41435 4.2551 0.866693 6.33836 0.319081 1.58653 9.19469 0.517522 1.70963 1.94551 6.24262 1.13685 3.62216 8.73793 1.92876 0.7531 4.44074 1.01679 5.91485 1.95015 0.448415 3.46393 0.589746 1.03705 1.89069 3.96157 3.66814 1.68405 3.03694 1.26121 1.9223 4.47514 2.20338 2.24117 1.83745 5.58561 4.2189 0.660436 0.314561 9.10358 0.608848 5.88891 3.31866 1.80097 1.23959 3.37937 0.603705 0.195857 1.53624 0.505827 3.2221 1.51452 5.05314 1.54726 8.63338 0.997529 6.2244 1.10007 2.55142 0.860549 3.923 8.87054 0.660436 5.02014 2.54828 1.3231 3.3957 4.44074 1.24818 7.31288 2.75069 7.94772 2.50686 10.4 5.58159 2.20033 1.47713 0.345054 1.22216 8.50446 4.56657 5.29085 0.766743 3.88993 2.07495 4.84939 3.78341 3.5182 2.45208 2.47038 1.97298 4.75669 0.621221 4.79938 7.10332 0.339242 6.85885 1.81292 0.679687 1.4959 0.573544 7.00365 1.22216 8.26162 2.91937 0.689144 4.1711 0.960945 0.174997 6.26771 0.87216 4.17943 1.11561 9.10358 0.96912 8.09223 4.23763 1.54726 4.80411 2.4097 6.38454 0.481256 5.04072 1.09671 3.67855 4.25097 6.22533 0.830166 0.701716 5.87934 0.606082 4.11595 4.28212 5.90028 1.41562 1.01679 6.20584 0.427712 7.5382 0.801984 1.23276 6.15602 3.49505 2.42038 0.881101 5.49899 3.39105 0.566162 9.04375 3.84598 5.60258 5.81312 11.0047 2.64348 7.73265 0.56885 0.6688 5.15646 2.39669 4.22673 1.8148 4.10875 1.5255 0.995345 5.63119 1.96178 5.2741 5.55979 1.26322 3.25075 0.567786 3.10861 2.13863 1.77164 1.69157 2.88836 5.39228 4.67475 3.65977 0.916171 3.94431 0.653005 10.7015 3.22057 0.659409 2.6094 7.12401 7.59197 1.40042 4.79717 1.04933 5.43239 0.398133 8.57479 4.72923 4.28597 4.1711 6.29949 3.33761 5.906 1.11923 2.32214 4.28838 0.612384 2.40958 4.62245 1.17035 2.60631 7.88129 2.10828 1.36274 6.13669 3.15399 1.05671 1.36152 0.566162 2.46077 2.71945 2.76032 0.347773 3.04121 7.44072 2.60972 3.3568 3.37036 1.23276 1.46378 8.46761 2.12057 2.71845 2.44329 1.12522 1.25284 0.686879 7.1456 1.20106 2.91937 3.0527 1.5922 1.41247 4.39328 6.4251 0.487803 8.2484 1.79029 4.04887 6.38454 1.13194 9.4428 3.15312 8.23449 2.3445 0.690506 0.916171 5.09982 1.89772 0.304014 0.845898 3.56811 1.95778 5.79345 1.22452 4.08093 6.2029 7.69349 1.008 1.78022 2.5751 5.87486 0.858865 1.59622 7.74686 3.52127 5.6366 0.781401 2.67717 1.83951 3.15312 0.692815 1.79618 6.87999 1.58757 0.512794 2.71945 2.87152 1.53529 1.26636 3.39105 5.70105 2.48806 4.67475 0.999584 2.46077 0.794444 4.07414 2.15724 3.8857 3.41268 3.4624 1.46064 2.26714 0.254258 1.80097 6.80095 6.26797 0.227339 8.52751 2.93676 0.666926 4.42974 1.57492 0.65939 1.22454 3.96528 6.01225 8.85373 0.861738 6.69035 3.22057 3.30724 7.994 4.69149 2.97893 6.24262 8.55317 0.537515 0.373163 8.86864 0.976544 4.42823 1.97997 5.2646 3.96137 3.12104 3.79285 0.757321 0.790414 6.67562 3.35325 0.0323892 10.3522 1.35595 5.46498 5.22865 0.588369 4.10274 0.287045 2.54156 1.55596 4.06355 5.17172 7.31389 2.7849 0.81696 0.618128 1.0311 11.3562 3.4331 1.54849 3.82368 2.61897 6.11278 5.10978 0.801431 2.24117 7.50085 0.853718 4.88932 1.36289 0.858865 7.23508 3.63121 0.478794 8.09223 1.65513 5.28197 3.96137 3.68259 4.22502 3.2221 4.12732 3.97634 1.28068 7.29206 0.863365 3.00696 0.943932 6.60711 7.91789 3.60806 1.82681 3.24757 2.04499