<VTKFile type="UnstructuredGrid" version="0.1">
<UnstructuredGrid>
<Piece  NumberOfPoints="    2393" NumberOfCells="     401">
<Points>
<DataArray type="Float64" NumberOfComponents="3" format="ascii">
18.3141 -16.2147 0.0
18.7993 -13.2547 0.0
17.2011 -11.9524 0.0
14.1715 -11.3672 0.0
12.4257 -13.7185 0.0
15.7153 -18.8008 0.0
16.7969 -18.6923 0.0
22.6965 -23.6474 0.0
22.478 -22.8142 0.0
18.9389 -22.6306 0.0
15.3689 -26.6434 0.0
17.3045 -28.1194 0.0
26.2606 -35.3807 0.0
25.3464 -39.2858 0.0
28.7119 -39.1171 0.0
32.3728 -34.1328 0.0
33.6494 -32.1362 0.0
33.3475 -31.2288 0.0
29.4941 -32.5649 0.0
-45.3347 19.5932 0.0
-41.8973 19.0944 0.0
-39.6537 22.1574 0.0
-39.3887 23.2924 0.0
-43.0506 26.3458 0.0
-44.2407 25.1574 0.0
-45.33 21.2088 0.0
23.8172 -2.77488 0.0
24.8351 -4.75785 0.0
28.4414 -3.17867 0.0
28.9772 1.25128 0.0
28.5775 2.04105 0.0
24.1125 2.50136 0.0
29.5008 1.18126 0.0
28.965 -3.24868 0.0
31.856 -5.19135 0.0
33.5523 -2.49369 0.0
34.213 -0.602205 0.0
33.6591 1.06775 0.0
6.62964 39.6546 0.0
7.01579 39.3226 0.0
10.2461 38.3603 0.0
12.7648 40.2322 0.0
14.1914 42.9989 0.0
13.0182 43.9525 0.0
12.6735 44.0091 0.0
-19.0378 -48.7979 0.0
-23.466 -47.133 0.0
-27.3025 -49.4542 0.0
-23.5081 -52.1589 0.0
-13.4253 -29.1509 0.0
-15.5834 -31.6919 0.0
-13.1795 -35.0205 0.0
-9.10224 -35.586 0.0
-8.59219 -33.8103 0.0
-26.3955 25.0746 0.0
-27.3613 23.6806 0.0
-27.4534 22.8733 0.0
-23.5682 20.2265 0.0
-20.1079 23.481 0.0
-20.379 23.9862 0.0
-46.5439 -31.0698 0.0
-44.4255 -27.1571 0.0
-50.9531 -24.9316 0.0
-49.6573 -28.1369 0.0
-15.925 -12.2688 0.0
-16.6953 -7.71699 0.0
-21.4008 -5.93553 0.0
-21.9497 -6.48502 0.0
-22.6941 -9.22909 0.0
-20.1298 -10.6975 0.0
-21.5646 29.7594 0.0
-20.8281 30.3211 0.0
-21.8581 34.9627 0.0
-24.0222 34.5447 0.0
-26.2908 30.412 0.0
-24.856 28.9175 0.0
0.322677 -5.35067 0.0
-1.47132 -3.63793 0.0
-5.06406 -3.43269 0.0
-6.42196 -6.16969 0.0
-4.16436 -7.54665 0.0
24.2449 -45.6593 0.0
27.3738 -44.6101 0.0
24.1101 -40.6594 0.0
22.7869 -41.6012 0.0
21.0513 -43.5742 0.0
21.2997 -43.8747 0.0
-29.0988 -6.88459 0.0
-34.1237 -10.8231 0.0
-32.0384 -14.1124 0.0
-31.1712 -14.134 0.0
-27.8941 -11.1307 0.0
-11.1811 18.9456 0.0
-8.93894 20.6451 0.0
-7.93842 23.0178 0.0
-9.873 24.1002 0.0
-10.9877 24.7121 0.0
-14.9413 19.8522 0.0
50.5033 -11.0113 0.0
50.5228 -8.15576 0.0
49.1933 -5.91511 0.0
47.872 -6.46845 0.0
45.7352 -9.102 0.0
45.6455 -10.0629 0.0
-1.96413 55.6089 0.0
2.25712 54.3909 0.0
4.41956 56.2825 0.0
3.16252 57.0802 0.0
-3.36799 57.548 0.0
-4.71973 56.6703 0.0
9.34881 24.3848 0.0
11.1409 21.9563 0.0
14.7449 19.4718 0.0
18.0205 21.3818 0.0
17.0437 23.1519 0.0
-41.3115 11.969 0.0
-41.7912 7.73423 0.0
-38.6295 4.44542 0.0
-36.6725 8.00508 0.0
-38.5445 14.4919 0.0
-40.411 13.7772 0.0
-39.4307 30.9978 0.0
-40.0921 30.9855 0.0
-42.8089 26.8348 0.0
-39.147 23.7814 0.0
-38.3415 24.7177 0.0
12.6389 14.6186 0.0
13.4126 12.9009 0.0
18.7424 13.6584 0.0
16.4527 16.3188 0.0
14.8723 17.801 0.0
36.2318 -31.4455 0.0
37.2365 -32.1325 0.0
44.4231 -25.0076 0.0
44.5099 -23.2097 0.0
42.7615 -22.6797 0.0
-15.2998 60.101 0.0
-18.7381 57.1046 0.0
-20.3984 54.9196 0.0
-17.6803 54.5618 0.0
-13.7847 55.2924 0.0
-13.3742 55.4681 0.0
-14.0131 60.3923 0.0
8.16147 -47.5243 0.0
8.47512 -47.2195 0.0
5.24065 -44.438 0.0
1.64382 -44.7312 0.0
0.0612709 -48.3492 0.0
-16.1095 9.69537 0.0
-15.1928 11.7884 0.0
-18.8552 15.3055 0.0
-21.9912 12.2834 0.0
-21.5298 9.50489 0.0
54.7408 -14.5507 0.0
53.2961 -13.9246 0.0
50.0102 -19.9966 0.0
51.1075 -20.6315 0.0
53.9578 -19.5191 0.0
-47.7042 11.0786 0.0
-42.5984 12.3994 0.0
-46.9682 16.6745 0.0
-48.3939 14.56 0.0
18.5632 -22.4162 0.0
16.7313 -19.5064 0.0
15.6497 -19.615 0.0
12.437 -21.5418 0.0
12.5333 -23.9487 0.0
13.7684 -26.5021 0.0
14.6605 -26.5333 0.0
14.9932 -26.4289 0.0
14.976 49.7269 0.0
18.3373 49.2535 0.0
14.0859 54.2012 0.0
10.1271 54.6117 0.0
11.3573 51.9865 0.0
11.827 51.0825 0.0
6.82618 16.6294 0.0
5.91346 17.7688 0.0
2.23278 19.2327 0.0
-2.00096 16.8394 0.0
-1.53782 15.7598 0.0
5.29464 12.4247 0.0
-1.54093 15.0082 0.0
-1.77772 9.99942 0.0
1.65476 8.77641 0.0
3.79286 8.57942 0.0
5.34791 11.6753 0.0
-40.5508 -34.5719 0.0
-39.6627 -33.1286 0.0
-41.105 -29.8603 0.0
-43.4955 -27.2662 0.0
-43.9457 -27.5231 0.0
-46.0641 -31.4358 0.0
-42.8795 -34.697 0.0
-16.8073 -17.1054 0.0
-13.4731 -20.7694 0.0
-9.24992 -17.5774 0.0
-10.838 -15.8153 0.0
-14.1024 -14.7323 0.0
-14.514 -14.6804 0.0
-15.0549 35.3997 0.0
-12.3041 36.478 0.0
-10.938 37.9532 0.0
-17.8317 39.1195 0.0
-19.0757 36.5228 0.0
-45.6635 -11.242 0.0
-47.1202 -10.2204 0.0
-48.7248 -9.08789 0.0
-49.7219 -10.4328 0.0
-50.0922 -10.9564 0.0
-49.6693 -14.7714 0.0
-48.4494 -17.7071 0.0
-44.431 -15.8476 0.0
-2.73833 -30.1007 0.0
-2.07499 -30.2134 0.0
3.25011 -27.7417 0.0
3.28655 -27.5846 0.0
3.00633 -26.1887 0.0
-1.29478 -24.6578 0.0
-3.45594 -24.8742 0.0
-2.86465 -30.0371 0.0
-25.6437 -12.8131 0.0
-27.6104 -11.5381 0.0
-30.8874 -14.5414 0.0
-27.1611 -19.1224 0.0
34.0067 5.06348 0.0
34.909 5.65116 0.0
36.2882 12.1322 0.0
33.3561 12.8444 0.0
31.8727 8.80659 0.0
19.2718 13.7181 0.0
19.9265 12.9618 0.0
23.633 14.8046 0.0
22.4922 17.6531 0.0
16.9821 16.3785 0.0
-12.8549 -35.5828 0.0
-13.2438 -36.2765 0.0
-8.6255 -41.3764 0.0
-7.71065 -41.5641 0.0
-5.97052 -41.1118 0.0
-5.48541 -38.4099 0.0
-5.76585 -38.1182 0.0
-8.77765 -36.1482 0.0
-42.9417 -38.2348 0.0
-43.1716 -34.9402 0.0
-46.3562 -31.6789 0.0
-49.4696 -28.746 0.0
-47.6741 -33.0452 0.0
-45.6168 -35.9116 0.0
31.0637 -47.0317 0.0
23.1242 -51.0811 0.0
22.1602 -53.0455 0.0
21.9074 -53.5343 0.0
24.7946 -52.7523 0.0
30.1669 -49.8394 0.0
33.0888 -47.1825 0.0
14.3218 -27.3331 0.0
13.4296 -27.3019 0.0
8.98108 -29.9874 0.0
9.99293 -33.7185 0.0
12.7917 -34.053 0.0
13.185 -33.8311 0.0
49.4395 17.6934 0.0
48.9373 17.9773 0.0
46.7172 17.2913 0.0
46.7596 12.6961 0.0
47.7276 10.6255 0.0
50.0665 10.3675 0.0
-47.5611 10.6138 0.0
-47.3566 6.92238 0.0
-44.1491 5.43022 0.0
-42.3295 7.66981 0.0
-41.8498 11.9046 0.0
-42.4554 11.9346 0.0
8.15584 16.0992 0.0
10.6875 15.3718 0.0
12.1924 14.939 0.0
14.4258 18.1214 0.0
14.4257 19.0682 0.0
10.8217 21.5527 0.0
10.3033 21.226 0.0
6.77453 17.8495 0.0
7.68726 16.7102 0.0
42.4543 36.9861 0.0
39.1381 38.5379 0.0
39.0542 36.2065 0.0
40.1518 33.8751 0.0
43.511 29.9079 0.0
47.0705 28.1755 0.0
46.3703 30.183 0.0
44.6239 33.581 0.0
-11.6903 -56.9163 0.0
-7.15224 -59.0865 0.0
-4.83304 -59.5542 0.0
-2.0116 -58.66 0.0
-5.39177 -54.5145 0.0
-9.1112 -54.0085 0.0
-30.2366 30.4051 0.0
-29.9737 29.2907 0.0
-26.6521 30.5978 0.0
-24.3835 34.7305 0.0
-25.007 38.3785 0.0
-26.0301 38.2478 0.0
-28.9405 -3.54994 0.0
-28.4712 -5.53782 0.0
-22.5644 -5.95238 0.0
-22.0156 -5.40289 0.0
-23.445 -1.31793 0.0
-24.9098 -0.378152 0.0
-26.5358 -1.5532 0.0
-0.891659 -24.1839 0.0
-0.919046 -24.2766 0.0
3.38206 -25.8075 0.0
7.1061 -21.6469 0.0
6.57613 -20.8462 0.0
-0.568775 -23.3638 0.0
-3.69637 25.7892 0.0
-7.34992 23.1496 0.0
-8.35043 20.777 0.0
-6.07186 19.9525 0.0
-4.95026 21.1486 0.0
-1.74321 25.2322 0.0
1.07018 -44.7577 0.0
-0.26892 -44.2216 0.0
-2.12752 -44.0256 0.0
-4.86245 -48.4252 0.0
-1.7434 -49.6025 0.0
-0.512369 -48.3757 0.0
-51.3023 9.43782 0.0
-51.6751 7.62739 0.0
-50.0472 4.23949 0.0
-47.8503 6.94757 0.0
-48.0548 10.639 0.0
-48.7445 14.1204 0.0
-50.3903 13.087 0.0
5.57973 6.36038 0.0
6.19951 6.17339 0.0
9.81159 5.1276 0.0
11.6818 7.53545 0.0
9.65861 8.97851 0.0
5.98041 11.3154 0.0
4.42536 8.21951 0.0
5.25477 6.89237 0.0
0.113624 44.6712 0.0
-4.34495 45.3821 0.0
-4.7091 45.1541 0.0
-5.21622 39.5445 0.0
-3.66032 39.0489 0.0
-2.4034 38.7315 0.0
0.776849 40.2724 0.0
0.717473 44.1572 0.0
3.36173 -6.35507 0.0
8.30697 -4.60472 0.0
8.47907 -2.68222 0.0
8.0908 -2.40942 0.0
4.37944 -0.334342 0.0
10.8951 0.329558 0.0
9.10886 -2.64479 0.0
8.93676 -4.56728 0.0
9.71947 -5.35938 0.0
11.0013 -5.92904 0.0
12.9868 -6.51656 0.0
15.7626 -2.14887 0.0
13.5589 -0.574379 0.0
13.4796 -6.65462 0.0
13.6167 -7.00996 0.0
19.0432 -5.86941 0.0
20.0242 -3.26813 0.0
17.5117 -1.70738 0.0
16.2554 -2.28694 0.0
-53.9513 -0.614014 0.0
-52.4501 -0.439988 0.0
-50.0565 -0.161912 0.0
-50.2837 3.21264 0.0
-50.3063 3.59612 0.0
-51.9342 6.98402 0.0
-54.1689 4.9086 0.0
-38.9086 -33.7592 0.0
-39.7967 -35.2025 0.0
-35.7583 -39.6588 0.0
-34.3824 -41.0794 0.0
-30.9608 -41.2554 0.0
-31.9913 -38.6029 0.0
-33.9421 -36.1742 0.0
1.47866 -57.4149 0.0
-1.22547 -58.8528 0.0
-4.0469 -59.747 0.0
-1.76786 -60.0158 0.0
2.13346 -59.466 0.0
5.55432 -58.0354 0.0
27.8155 27.0419 0.0
26.2606 28.1806 0.0
23.5865 24.5166 0.0
25.8417 21.812 0.0
28.3154 21.8855 0.0
-15.1433 -5.60133 0.0
-14.3241 -5.30447 0.0
-13.5614 -1.76543 0.0
-15.6 1.7632 0.0
-19.2707 0.612475 0.0
-19.6502 -0.0525418 0.0
-1.52723 -3.16833 0.0
-0.504915 -0.558873 0.0
-2.36267 0.955861 0.0
-2.99104 1.51368 0.0
-5.87444 2.65477 0.0
-7.00125 -0.868934 0.0
-5.11997 -2.96309 0.0
-20.7438 -38.8183 0.0
-21.5517 -41.5116 0.0
-13.6384 -43.7189 0.0
-13.5432 -42.1008 0.0
-16.8787 -39.5976 0.0
-39.85 -29.6218 0.0
-40.4871 -29.9896 0.0
-39.0449 -33.2579 0.0
-34.0784 -35.6728 0.0
-32.6573 -33.2376 0.0
35.6373 -21.9487 0.0
35.4556 -21.0456 0.0
32.6765 -22.2347 0.0
30.3628 -24.7382 0.0
29.4064 -28.2845 0.0
29.8794 -31.0675 0.0
16.3974 26.4987 0.0
19.5339 27.9762 0.0
20.9698 30.9341 0.0
18.6817 33.7215 0.0
16.071 33.5064 0.0
15.1051 27.3631 0.0
45.3923 1.68986 0.0
45.2403 2.59249 0.0
42.5924 2.99817 0.0
41.4302 -1.17348 0.0
42.1205 -6.51902 0.0
43.5672 -6.92704 0.0
53.9893 4.10245 0.0
55.2643 0.466064 0.0
57.4846 -1.60205 0.0
57.5955 2.67574 0.0
56.5665 7.92714 0.0
55.6027 10.2943 0.0
53.6823 11.561 0.0
53.5067 8.05391 0.0
-16.0708 48.1308 0.0
-19.4059 47.49 0.0
-20.7943 45.0024 0.0
-21.0809 42.1191 0.0
-18.1337 42.7365 0.0
-17.7346 43.0187 0.0
-16.6546 43.7531 0.0
-4.89799 29.189 0.0
-3.38545 26.2987 0.0
-1.43229 25.7416 0.0
0.411011 25.7171 0.0
-0.327011 28.6829 0.0
-2.42728 30.7654 0.0
38.7479 -43.4209 0.0
41.8281 -41.3174 0.0
45.6987 -37.1919 0.0
45.9779 -35.8465 0.0
43.3988 -35.6899 0.0
38.4208 -42.3358 0.0
-28.9036 -24.3706 0.0
-27.2659 -26.3559 0.0
-20.3755 -23.1967 0.0
-20.6047 -22.0908 0.0
-21.7916 -20.5281 0.0
[...]
<CellData Scalars="cell variable 4" Vectors="cell vector">
<DataArray type="Float64" NumberOfComponents="3" Name="cell vector" format="ascii">
0 0 0
0 0 0
0 0 0
0 0 0
0 0 0
0 0 0
0 0 0
0 0 0
0 0 0
0 0 0
0 0 0
0 0 0
0 0 0
0 0 0
0 0 0
0 0 0
0 0 0
0 0 0
0 0 0
0 0 0
0 0 0
0 0 0
0 0 0
0 0 0
0 0 0
0 0 0
0 0 0
0 0 0
0 0 0
0 0 0
0 0 0
0 0 0
0 0 0
0 0 0
0 0 0
0 0 0
0 0 0
0 0 0
0 0 0
0 0 0
0 0 0
0 0 0
0 0 0
0 0 0
0 0 0
0 0 0
0 0 0
0 0 0
0 0 0
0 0 0
0 0 0
0 0 0
0 0 0
0 0 0
0 0 0
0 0 0
0 0 0
0 0 0
0 0 0
0 0 0
0 0 0
0 0 0
0 0 0
0 0 0
0 0 0
0 0 0
0 0 0
0 0 0
0 0 0
0 0 0
0 0 0
0 0 0
0 0 0
0 0 0
0 0 0
0 0 0
0 0 0
0 0 0
0 0 0
0 0 0
0 0 0
0 0 0
0 0 0
0 0 0
0 0 0
0 0 0
0 0 0
0 0 0
0 0 0
0 0 0
0 0 0
0 0 0
0 0 0
0 0 0
0 0 0
0 0 0
0 0 0
0 0 0
0 0 0
0 0 0
0 0 0
0 0 0
0 0 0
0 0 0
0 0 0
0 0 0
0 0 0
0 0 0
0 0 0
0 0 0
0 0 0
0 0 0
0 0 0
0 0 0
0 0 0
0 0 0
0 0 0
0 0 0
0 0 0
0 0 0
0 0 0
0 0 0
0 0 0
0 0 0
0 0 0
0 0 0
0 0 0
0 0 0
0 0 0
0 0 0
0 0 0
0 0 0
0 0 0
0 0 0
0 0 0
0 0 0
0 0 0
0 0 0
0 0 0
0 0 0
0 0 0
0 0 0
0 0 0
0 0 0
0 0 0
0 0 0
0 0 0
0 0 0
0 0 0
0 0 0
0 0 0
0 0 0
0 0 0
0 0 0
0 0 0
0 0 0
0 0 0
0 0 0
0 0 0
0 0 0
0 0 0
0 0 0
0 0 0
0 0 0
0 0 0
0 0 0
0 0 0
0 0 0
0 0 0
0 0 0
0 0 0
0 0 0
0 0 0
0 0 0
0 0 0
0 0 0
0 0 0
0 0 0
0 0 0
0 0 0
0 0 0
0 0 0
0 0 0
0 0 0
0 0 0
0 0 0
0 0 0
0 0 0
0 0 0
0 0 0
0 0 0
0 0 0
0 0 0
0 0 0
0 0 0
0 0 0
0 0 0
0 0 0
0 0 0
0 0 0
0 0 0
0 0 0
0 0 0
0 0 0
0 0 0
0 0 0
0 0 0
0 0 0
0 0 0
0 0 0
0 0 0
0 0 0
0 0 0
0 0 0
0 0 0
0 0 0
0 0 0
0 0 0
0 0 0
0 0 0
0 0 0
0 0 0
0 0 0
0 0 0
0 0 0
0 0 0
0 0 0
0 0 0
0 0 0
0 0 0
0 0 0
0 0 0
0 0 0
0 0 0
0 0 0
0 0 0
0 0 0
0 0 0
0 0 0
0 0 0
0 0 0
0 0 0
0 0 0
0 0 0
0 0 0
0 0 0
0 0 0
0 0 0
0 0 0
0 0 0
0 0 0
0 0 0
0 0 0
0 0 0
0 0 0
0 0 0
0 0 0
0 0 0
0 0 0
0 0 0
0 0 0
0 0 0
0 0 0
0 0 0
0 0 0
0 0 0
0 0 0
0 0 0
0 0 0
0 0 0
0 0 0
0 0 0
0 0 0
0 0 0
0 0 0
0 0 0
0 0 0
0 0 0
0 0 0
0 0 0
0 0 0
0 0 0
0 0 0
0 0 0
0 0 0
0 0 0
0 0 0
0 0 0
0 0 0
0 0 0
0 0 0
0 0 0
0 0 0
0 0 0
0 0 0
0 0 0
0 0 0
0 0 0
0 0 0
0 0 0
0 0 0
0 0 0
0 0 0
0 0 0
0 0 0
0 0 0
0 0 0
0 0 0
0 0 0
0 0 0
0 0 0
0 0 0
0 0 0
0 0 0
0 0 0
0 0 0
0 0 0
0 0 0
0 0 0
0 0 0
0 0 0
0 0 0
0 0 0
0 0 0
0 0 0
0 0 0
0 0 0
0 0 0
0 0 0
0 0 0
0 0 0
0 0 0
0 0 0
0 0 0
0 0 0
0 0 0
0 0 0
0 0 0
0 0 0
0 0 0
0 0 0
0 0 0
0 0 0
0 0 0
0 0 0
0 0 0
0 0 0
0 0 0
0 0 0
0 0 0
0 0 0
0 0 0
0 0 0
0 0 0
0 0 0
0 0 0
0 0 0
0 0 0
0 0 0
0 0 0
0 0 0
0 0 0
0 0 0
0 0 0
0 0 0
0 0 0
0 0 0
0 0 0
0 0 0
0 0 0
0 0 0
0 0 0
0 0 0
0 0 0
0 0 0
0 0 0
0 0 0
0 0 0
0 0 0
0 0 0
0 0 0
0 0 0
0 0 0
0 0 0
0 0 0
0 0 0
0 0 0
0 0 0
0 0 0
0 0 0
0 0 0
0 0 0
0 0 0
0 0 0
0 0 0
0 0 0
0 0 0
0 0 0
0 0 0
0 0 0
0 0 0
</DataArray>
<DataArray type="Float64" Name="cell vector length" format="ascii">
0 0 0 0 0 0 0 0 0 0 0 0 0 0 0 0 0 0 0 0 0 0 0 0 0 0 0 0 0 0 0 0 0 0 0 0 0 0 0 0 0 0 0 0 0 0 0 0 0 0 0 0 0 0 0 0 0 0 0 0 0 0 0 0 0 0 0 0 0 0 0 0 0 0 0 0 0 0 0 0 0 0 0 0 0 0 0 0 0 0 0 0 0 0 0 0 0 0 0 0 0 0 0 0 0 0 0 0 0 0 0 0 0 0 0 0 0 0 0 0 0 0 0 0 0 0 0 0 0 0 0 0 0 0 0 0 0 0 0 0 0 0 0 0 0 0 0 0 0 0 0 0 0 0 0 0 0 0 0 0 0 0 0 0 0 0 0 0 0 0 0 0 0 0 0 0 0 0 0 0 0 0 0 0 0 0 0 0 0 0 0 0 0 0 0 0 0 0 0 0 0 0 0 0 0 0 0 0 0 0 0 0 0 0 0 0 0 0 0 0 0 0 0 0 0 0 0 0 0 0 0 0 0 0 0 0 0 0 0 0 0 0 0 0 0 0 0 0 0 0 0 0 0 0 0 0 0 0 0 0 0 0 0 0 0 0 0 0 0 0 0 0 0 0 0 0 0 0 0 0 0 0 0 0 0 0 0 0 0 0 0 0 0 0 0 0 0 0 0 0 0 0 0 0 0 0 0 0 0 0 0 0 0 0 0 0 0 0 0 0 0 0 0 0 0 0 0 0 0 0 0 0 0 0 0 0 0 0 0 0 0 0 0 0 0 0 0 0 0 0 0 0 0 0 0 0 0 0 0 0 0 0 0 0 0 0 0 0 0 0 0 0 0 0 0 0 0 0 0 0 0 0 0 0 0 0 0 0 0 0 0 0 0 0 0 0 0 0 0 0 0 
</DataArray>
<DataArray type="Float64" Name="cell variable 4" format="ascii">
0.316217 0.000510187 7.22055e-10 1.1392e-10 0.249242 0.0032488 1.23542e-08 5.06408e-13 0.000319359 0.000137838 9.78894e-13 0.479217 5.48914e-07 1.04461 2.5153e-11 0.000586701 0.334198 4.77775e-11 2.14504e-13 0.161465 1.34433e-07 1.43573e-10 0.511974 1.79224e-10 2.32146e-14 1.06024e-10 0.393381 8.0853e-13 2.48184e-10 0.163146 9.42051e-13 0.626025 0.980966 1.75394e-12 0.437452 1.19294e-07 4.633e-11 0.184973 0.00760007 4.69927e-06 0.252014 1.1995e-07 1.0791e-13 1.08668e-13 0.000160982 5.75207e-12 8.58362e-10 0.434405 8.1913e-13 9.33834e-14 3.42967e-09 0.23011 0.442722 0.33356 3.05763e-10 1.53946e-11 1.06245 2.68958e-08 1.11547 0.912892 0.573608 3.35388e-12 6.26079e-12 3.62571e-14 1.55471e-05 0.542818 1.12037 6.17036e-10 1.36606e-10 1.97283e-08 4.18495e-05 2.5907e-09 2.35345e-13 5.84028e-11 0.0976075 7.68667e-14 0.000116047 0.0505895 5.96913e-06 1.61534e-05 5.26566e-05 2.73299e-11 5.60239e-07 9.71611e-13 1.81312e-09 8.20491e-13 1.55214e-11 1.10185 1.14226 0.371127 5.12565e-14 0.708918 3.8559e-13 1.82626e-12 4.42555e-05 0.00273317 0.118662 7.85135e-13 2.90644e-14 3.14565e-11 0.503886 5.73e-12 1.68594e-06 4.8591e-12 4.44145e-11 2.814e-10 2.22629e-12 5.76039e-06 3.47057e-13 9.51839e-14 3.83176e-13 1.11565e-11 1.3423e-11 0.673042 3.49399e-07 8.33062e-06 2.42345e-06 6.16323e-05 1.6923e-08 0.789941 6.21845e-13 1.12502e-11 3.37504e-10 4.46645e-09 2.16e-11 0.000425284 6.21089e-10 7.13306e-11 0.99432 5.20703e-14 2.06819e-12 3.18802e-14 5.41779e-08 0.000705084 0.66381 5.50953e-14 5.22026e-13 4.32436e-12 2.10901e-08 1.18023e-09 2.34778e-08 1.00681 7.58754e-07 1.95527e-13 1.73379e-12 2.90155e-14 2.88095e-08 6.97512e-07 3.13132e-09 8.68069e-05 0.0773391 5.37776e-11 0.00151096 0.919422 1.16697e-08 7.29789e-07 1.85341e-12 2.00391e-09 1.12956e-11 0.000237451 3.42138e-05 0.94865 0.848855 2.59037e-13 1.10621e-08 5.78851e-09 0.657465 8.723e-13 6.30556e-13 3.48747e-09 4.14778e-14 1.36504e-12 0.00403603 1.03617e-13 2.4788e-08 3.89469e-09 2.0118e-13 3.72001e-12 0.130161 0.0824302 9.53305e-13 0.179448 2.86502e-13 1.32488e-09 0.00103121 1.89305e-07 1.2938e-10 1.41816e-10 0.313432 0.136507 6.83616e-13 3.01178e-10 1.07467 8.75867e-11 1.36132e-10 2.06659e-11 6.13175e-07 6.80038e-10 1.5044e-05 3.52153e-13 0.790107 2.44056e-08 2.28015e-11 3.58878e-10 1.84661e-13 0.50937 0.45141 3.48316e-07 7.55742e-08 2.44034e-13 0.514292 0.000157331 4.61276e-06 0.495708 1.0952e-09 0.153908 7.50844e-12 4.76435e-12 1.38398e-06 1.23799e-05 7.27365e-13 3.28772e-13 3.34221e-13 0.00145277 3.05783e-14 0.8063 0.000331293 0.332003 2.73979e-13 0.763876 1.76443e-09 0.90618 1.25207e-10 0.187543 8.15157e-13 0.0646441 3.38072e-08 1.14453e-06 0.00370628 0.631062 7.9236e-08 1.73262e-10 0.343308 0.32239 0.000306373 0.399988 5.52696e-11 0.736473 2.24794e-07 5.6859e-12 5.98214e-11 0.393247 9.86599e-09 0.36504 1.60998e-08 1.04772e-07 1.86103e-08 3.09214e-07 0.0097703 1.5272e-11 1.65194e-09 1.09841e-08 0.184059 4.92599e-13 0.000209614 0.27464 0.0978407 0.0505895 2.73299e-11 4.61276e-06 0.000319359 6.80038e-10 5.06408e-13 0.542818 7.29789e-07 4.76435e-12 0.136507 3.49399e-07 0.184973 5.37776e-11 0.187543 3.42138e-05 1.79224e-10 1.73262e-10 5.20703e-14 0.000157331 0.00760007 2.5907e-09 2.16e-11 3.42967e-09 1.14453e-06 0.23011 2.34778e-08 8.15157e-13 4.46645e-09 0.0032488 1.06024e-10 2.24794e-07 1.0952e-09 1.16697e-08 7.9236e-08 1.1995e-07 1.68594e-06 0.179448 9.78894e-13 0.118662 0.000160982 8.723e-13 1.10621e-08 1.61534e-05 0.631062 1.73379e-12 6.13175e-07 7.27365e-13 1.97283e-08 0.153908 5.22026e-13 1.11547 5.50953e-14 5.48914e-07 0.0824302 0.32239 0.161465 2.48184e-10 4.69927e-06 5.75207e-12 3.72001e-12 2.10901e-08 0.00103121 1.36606e-10 6.21845e-13 0.000137838 6.17036e-10 5.26566e-05 3.14565e-11 5.96913e-06 3.48747e-09 0.495708 0.36504 1.55471e-05 2.59037e-13 5.12565e-14 1.18023e-09 1.85341e-12 0.000425284 7.58754e-07 5.6859e-12 0.848855 0.000510187 2.44034e-13 0.657465 0.573608 0.919422 0.442722 0.399988 0.252014 1.55214e-11 1.82626e-12 1.23542e-08 3.09214e-07 0.000237451 0.343308 6.16323e-05 2.814e-10 1.12956e-11 0.763876 9.71611e-13 0.313432 0.789941 1.76443e-09 5.76039e-06 5.78851e-09 0.0773391 1.10185 3.01178e-10 0.790107 1.32488e-09 8.0853e-13 0.673042 0.00370628 0.66381 4.32436e-12 7.85135e-13 0.514292 3.52153e-13 1.65194e-09 3.37504e-10 1.43573e-10 1.14226 2.5153e-11 0.626025 1.04461 4.77775e-11 1.5272e-11 5.73e-12 8.33062e-06 0.00151096 0.511974 2.86502e-13 9.86599e-09 0.130161 
</DataArray>
<DataArray type="Float64" Name="cell variable 5" format="ascii">
0.0909148 0.999974 1 1 0.138655 0.998946 1 1 0.99999 0.999998 1 0.0417277 1 0.00908091 1 0.999966 0.082177 1 1 0.277231 1 1 0.0367488 1 1 1 0.0606986 1 1 0.273099 1 0.0248813 0.0102849 1 0.0496613 1 1 0.226167 0.994257 1 0.136034 1 1 1 0.999997 1 1 0.0503251 1 1 1 0.158855 0.0485429 0.0824658 1 1 0.00878122 1 0.00797274 0.0118572 0.0294962 1 1 1 1 0.0328244 0.00790366 1 1 1 1 1 1 1 0.512105 1 0.999999 0.796223 1 1 1 1 1 1 1 1 1 0.00816951 0.00760594 0.0676886 1 0.0195097 1 1 1 0.999254 0.415271 1 1 1 0.037893 1 1 1 1 1 1 1 1 1 1 1 1 0.021599 1 1 1 1 1 0.0157727 1 1 1 1 1 0.999982 1 1 0.0100133 1 1 1 1 0.99995 0.0221905 1 1 1 1 1 1 0.00976872 1 1 1 1 1 1 1 0.999999 0.62573 1 0.999772 0.0116913 1 1 1 1 1 0.999994 1 0.0109898 0.0136882 1 1 1 0.0226112 1 1 1 1 1 0.998374 1 1 1 1 1 0.371169 0.595425 1 0.236958 1 1 0.999894 1 1 1 0.0923878 0.349234 1 1 0.00858434 1 1 1 1 1 1 1 0.0157662 1 1 1 1 0.0371116 0.0467791 1 1 1 0.0364304 0.999998 1 0.0391044 1 0.296844 1 1 1 1 1 1 1 0.999789 1 0.0151488 0.999989 0.0831765 1 0.016849 1 0.0120314 1 0.221374 1 0.705275 1 1 0.998628 0.0244954 1 1 0.0782104 0.0877689 0.999991 0.0588268 1 0.0181031 1 1 1 0.0607373 1 0.0698059 1 1 1 1 0.990544 1 1 1 0.227907 1 0.999996 0.117059 0.510913 0.796223 1 1 0.99999 1 1 0.0328244 1 1 0.349234 1 0.226167 1 0.221374 1 1 1 1 0.999998 0.994257 1 1 1 1 0.158855 1 1 1 0.998946 1 1 1 1 1 1 1 0.236958 1 0.415271 0.999997 1 1 1 0.0244954 1 1 1 1 0.296844 1 0.00797274 1 1 0.595425 0.0877689 0.277231 1 1 1 1 1 0.999894 1 1 0.999998 1 1 1 1 1 0.0391044 0.0698059 1 1 1 1 1 0.999982 1 1 0.0136882 0.999974 1 0.0226112 0.0294962 0.0116913 0.0485429 0.0588268 0.136034 1 1 1 1 0.999994 0.0782104 1 1 1 0.016849 1 0.0923878 0.0157727 1 1 1 0.62573 0.00816951 1 0.0157662 1 1 0.021599 0.998628 0.0221905 1 1 0.0364304 1 1 1 1 0.00760594 1 0.0248813 0.00908091 1 1 1 1 0.999772 0.0367488 1 1 0.371169 
</DataArray>
<DataArray type="Float64" Name="cell variable 6" format="ascii">
0.0038835 1.00883 1.00917 1.00917 0.0566856 1.00681 1.00917 1.00917 1.00896 1.00908 1.00917 0.00051123 1.00917 6.33494e-06 1.00917 1.00878 0.00576492 1.00917 1.00917 0.298329 1.00917 1.00917 0.00035504 1.00917 1.00917 1.00917 0.00151522 1.00917 1.00917 0.294057 1.00917 0.000115922 9.11938e-06 1.00917 0.000885689 1.00917 1.00917 0.208208 1.00277 1.00917 0.0441278 1.00917 1.00917 1.00917 1.00907 1.00917 1.00917 0.000857904 1.00917 1.00917 1.00917 0.0671729 0.000858618 0.00403961 1.00917 1.00917 5.74138e-06 1.00917 4.32387e-06 1.38076e-05 0.000187165 1.00917 1.00917 1.00917 1.00916 0.000251962 4.21468e-06 1.00917 1.00917 1.00917 1.00915 1.00917 1.00917 1.00917 0.67289 1.00917 1.0091 0.900072 1.00917 1.00916 1.00914 1.00917 1.00917 1.00917 1.00917 1.00917 1.00917 4.64493e-06 3.76475e-06 0.0019189 1.00917 5.81379e-05 1.00917 1.00917 1.00914 1.00716 0.533485 1.00917 1.00917 1.00917 0.000380196 1.00917 1.00917 1.00917 1.00917 1.00917 1.00917 1.00917 1.00917 1.00917 1.00917 1.00917 1.00917 7.76673e-05 1.00917 1.00917 1.00917 1.00913 1.00917 3.156e-05 1.00917 1.00917 1.00917 1.00917 1.00917 1.00889 1.00917 1.00917 8.43313e-06 1.00917 1.00917 1.00917 1.00917 1.0087 8.3838e-05 1.00917 1.00917 1.00917 1.00917 1.00917 1.00917 7.8448e-06 1.00917 1.00917 1.00917 1.00917 1.00917 1.00917 1.00917 1.00912 0.780596 1.00917 1.00816 1.32528e-05 1.00917 1.00917 1.00917 1.00917 1.00917 1.00902 1.00915 1.10661e-05 2.09522e-05 1.00917 1.00917 1.00917 8.84138e-05 1.00917 1.00917 1.00917 1.00917 1.00917 1.00605 1.00917 1.00917 1.00917 1.00917 1.00917 0.477444 0.752638 1.00917 0.235078 1.00917 1.00917 1.00849 1.00917 1.00917 1.00917 0.00439847 0.432355 1.00917 1.00917 5.3719e-06 1.00917 1.00917 1.00917 1.00917 1.00917 1.00916 1.00917 3.15261e-05 1.00917 1.00917 1.00917 1.00917 0.000394946 0.000696942 1.00917 1.00917 1.00917 0.000349016 1.00907 1.00917 0.000410215 1.00917 0.3398 1.00917 1.00917 1.00917 1.00917 1.00917 1.00917 1.00917 1.00814 1.00917 2.80904e-05 1.00895 0.00364689 1.00917 3.81646e-05 1.00917 1.4406e-05 1.00917 0.185318 1.00917 0.841792 1.00917 1.00917 1.00642 0.000110922 1.00917 1.00917 0.00310284 0.00628005 1.00897 0.00127682 1.00917 4.69278e-05 1.00917 1.00917 1.00917 0.00202135 1.00917 0.0019794 1.00917 1.00917 1.00917 1.00917 1.00014 1.00917 1.00917 1.00917 0.235443 1.00917 1.00904 0.02163 0.674122 0.900072 1.00917 1.00917 1.00896 1.00917 1.00917 0.000251962 1.00917 1.00917 0.432355 1.00917 0.208208 1.00917 0.185318 1.00915 1.00917 1.00917 1.00917 1.00907 1.00277 1.00917 1.00917 1.00917 1.00917 0.0671729 1.00917 1.00917 1.00917 1.00681 1.00917 1.00917 1.00917 1.00917 1.00917 1.00917 1.00917 0.235078 1.00917 0.533485 1.00907 1.00917 1.00917 1.00916 0.000110922 1.00917 1.00917 1.00917 1.00917 0.3398 1.00917 4.32387e-06 1.00917 1.00917 0.752638 0.00628005 0.298329 1.00917 1.00917 1.00917 1.00917 1.00917 1.00849 1.00917 1.00917 1.00908 1.00917 1.00914 1.00917 1.00917 1.00917 0.000410215 0.0019794 1.00916 1.00917 1.00917 1.00917 1.00917 1.00889 1.00917 1.00917 2.09522e-05 1.00883 1.00917 8.84138e-05 0.000187165 1.32528e-05 0.000858618 0.00127682 0.0441278 1.00917 1.00917 1.00917 1.00917 1.00902 0.00310284 1.00913 1.00917 1.00917 3.81646e-05 1.00917 0.00439847 3.156e-05 1.00917 1.00917 1.00917 0.780596 4.64493e-06 1.00917 3.15261e-05 1.00917 1.00917 7.76673e-05 1.00642 8.3838e-05 1.00917 1.00917 0.000349016 1.00917 1.00917 1.00917 1.00917 3.76475e-06 1.00917 0.000115922 6.33494e-06 1.00917 1.00917 1.00917 1.00917 1.00816 0.00035504 1.00917 1.00917 0.477444 
</DataArray>
<DataArray type="Float64" Name="cell variable 7" format="ascii">
0.357275 0.805214 0.978092 0.988818 0.413855 0.731648 0.944982 0.994685 0.786592 0.818915 0.993483 0.24144 0.895885 0.091923 0.989084 0.789622 0.334908 0.989411 0.998841 0.543895 0.953353 0.985799 0.2268 0.985845 1.00092 0.987264 0.290041 0.998525 0.983128 0.531783 0.992442 0.185875 0.103782 0.990411 0.262734 0.924335 0.988661 0.488241 0.695937 0.865788 0.422896 0.91048 0.997008 1.00172 0.804465 0.987088 0.980133 0.264653 0.991034 0.999503 0.963699 0.46057 0.259721 0.337987 0.973562 0.99226 0.0886341 0.95837 0.0788486 0.116913 0.203114 0.995708 0.986261 1.00151 0.87201 0.214434 0.0779382 0.968141 0.97158 0.947968 0.828165 0.967203 0.99644 0.984507 0.58928 1.00361 0.821805 0.667622 0.876672 0.855098 0.808066 0.980165 0.910934 0.997889 0.951959 1.00169 0.991878 0.0813708 0.0738515 0.306453 1.00149 0.162493 0.994971 0.992078 0.85435 0.786302 0.633332 0.999409 1.00014 0.994724 0.230311 0.992247 0.922196 0.993424 0.98225 0.982487 0.998131 0.912087 1.00344 1.00249 0.999787 0.987627 0.99489 0.172124 0.887905 0.869271 0.886845 0.804393 0.966248 0.142859 0.996819 0.999395 0.974211 0.96428 0.987688 0.777768 0.969761 0.985824 0.10127 0.997763 0.994612 1.00237 0.955764 0.790771 0.174715 1.00165 0.994101 0.996076 0.945385 0.96829 0.922008 0.0989326 0.900971 0.996832 0.995481 1.00397 0.95287 0.921346 0.970096 0.812727 0.646851 0.979721 0.723507 0.115625 0.962378 0.91184 0.996643 0.966983 0.990645 0.815305 0.881455 0.109939 0.129973 0.998061 0.947397 0.969413 0.176526 0.996302 0.995339 0.970553 1.00209 0.994013 0.781706 0.997327 0.95286 0.960718 0.999721 0.995783 0.557964 0.652741 0.998509 0.481302 0.999409 0.978562 0.74517 0.938631 0.98041 0.9868 0.360012 0.58017 0.999374 0.975103 0.0863829 0.983673 0.986005 0.977907 0.926956 0.962912 0.867885 0.994962 0.142821 0.952017 0.98832 0.967409 1.00069 0.227704 0.255368 0.905229 0.926812 1.00105 0.225806 0.802201 0.89681 0.233945 0.965959 0.544906 0.989109 0.987181 0.900885 0.864126 0.997658 0.998671 1.00028 0.822606 1.00321 0.139181 0.823381 0.340125 0.99635 0.148901 0.962923 0.118245 0.986201 0.511928 0.991957 0.663687 0.960394 0.908704 0.736426 0.184332 0.937093 0.978337 0.329428 0.347352 0.774006 0.285858 0.988558 0.15552 0.921969 0.990758 0.988722 0.288948 0.963751 0.311423 0.969235 0.926865 0.933796 0.914119 0.724735 0.990516 0.973522 0.955946 0.426674 1.00277 0.803638 0.399197 0.570965 0.667622 0.980165 0.89681 0.786592 0.962912 0.994685 0.214434 0.91184 0.987181 0.58017 0.887905 0.488241 0.979721 0.511928 0.881455 0.985845 0.978337 0.997763 0.802201 0.695937 0.967203 0.987688 0.963699 0.908704 0.46057 0.922008 0.991957 0.96428 0.731648 0.987264 0.921969 0.965959 0.962378 0.937093 0.91048 0.922196 0.481302 0.993483 0.633332 0.804465 0.996302 0.947397 0.855098 0.184332 0.995481 0.926956 0.997658 0.947968 0.544906 0.994101 0.0788486 1.00165 0.895885 0.652741 0.347352 0.543895 0.983128 0.865788 0.987088 0.995783 0.945385 0.74517 0.97158 0.996819 0.818915 0.968141 0.808066 0.994724 0.876672 0.970553 0.233945 0.311423 0.87201 0.998061 1.00149 0.96829 0.996643 0.777768 0.900971 0.990758 0.129973 0.805214 1.00105 0.176526 0.203114 0.115625 0.259721 0.285858 0.422896 0.991878 0.992078 0.944982 0.914119 0.815305 0.329428 0.804393 0.982487 0.990645 0.148901 0.997889 0.360012 0.142859 0.962923 0.912087 0.969413 0.646851 0.0813708 0.975103 0.142821 0.978562 0.998525 0.172124 0.736426 0.174715 0.996076 0.999409 0.225806 0.994962 0.973522 0.974211 0.985799 0.0738515 0.989084 0.185875 0.091923 0.989411 0.990516 0.992247 0.869271 0.723507 0.2268 0.999409 0.963751 0.557964 
</DataArray>
<DataArray type="Float64" Name="cell variable 8" format="ascii">