<VTKFile type="UnstructuredGrid" version="0.1">
<UnstructuredGrid>
<Piece  NumberOfPoints="    2517" NumberOfCells="     421">
<Points>
<DataArray type="Float64" NumberOfComponents="3" format="ascii">
28.2862 -25.1601 0.0
28.4004 -21.0423 0.0
23.8683 -22.8528 0.0
21.8242 -23.8194 0.0
23.7319 -28.526 0.0
25.6168 -28.6877 0.0
33.02 -35.2994 0.0
32.9167 -34.7675 0.0
27.5389 -34.4277 0.0
26.8676 -34.9764 0.0
23.8978 -40.0872 0.0
-20.5368 47.6822 0.0
-23.1989 47.7891 0.0
-24.6206 47.6585 0.0
-25.9606 46.6197 0.0
-23.4136 42.2319 0.0
-20.9169 42.4962 0.0
0.201038 12.038 0.0
-1.20494 13.4277 0.0
-8.46218 7.99069 0.0
-7.8985 6.41014 0.0
-7.73593 6.14606 0.0
40.9998 -6.32784 0.0
42.03 -5.66112 0.0
40.0856 -0.902434 0.0
36.6016 -5.08713 0.0
37.6382 -7.22379 0.0
45.0264 -0.237393 0.0
43.86 -5.2649 0.0
47.7363 -8.4647 0.0
50.078 -5.11968 0.0
48.3277 31.5343 0.0
48.536 31.9252 0.0
44.8051 35.8787 0.0
43.4799 35.6754 0.0
42.6514 32.8835 0.0
43.3995 31.6614 0.0
46.6241 30.1997 0.0
10.08 -14.7215 0.0
13.6206 -9.45661 0.0
12.5669 -7.74961 0.0
6.50916 -9.93338 0.0
9.0029 -13.3479 0.0
-23.3887 -48.0076 0.0
-21.4272 -50.6921 0.0
-20.5155 -51.8707 0.0
-17.1274 -47.7476 0.0
-20.4364 -44.6107 0.0
-41.6297 34.3901 0.0
-41.6075 33.9357 0.0
-40.6498 33.3276 0.0
-36.382 30.9292 0.0
-35.7228 31.3026 0.0
-32.5502 35.0098 0.0
-43.0551 -9.46791 0.0
-40.7712 -9.96637 0.0
-35.2655 -5.39704 0.0
-35.3997 -5.21405 0.0
-43.5968 -7.22318 0.0
-27.7826 -11.5065 0.0
-33.3129 -9.65391 0.0
-34.1267 -10.6666 0.0
-33.8691 -15.0058 0.0
-32.9705 -15.6565 0.0
-30.9881 -16.5007 0.0
-31.3028 45.9202 0.0
-32.3551 49.0598 0.0
-38.8941 46.0437 0.0
-37.7862 43.6939 0.0
-34.774 44.1446 0.0
-32.4358 44.673 0.0
-5.69371 -4.76276 0.0
-6.11091 -4.64643 0.0
-7.68288 -5.03452 0.0
-8.79483 -9.5306 0.0
-5.34608 -10.9826 0.0
-4.16685 -10.2412 0.0
52.669 7.37974 0.0
52.3034 3.86222 0.0
57.8816 4.35284 0.0
58.5789 8.5367 0.0
57.7672 8.7136 0.0
53.8803 8.36673 0.0
-49.2757 -19.4358 0.0
-47.6946 -22.0162 0.0
-46.4553 -22.0026 0.0
-42.297 -17.9382 0.0
-43.5634 -15.1604 0.0
-13.0736 33.054 0.0
-12.7264 35.4102 0.0
-14.3785 36.7465 0.0
-15.2001 37.3495 0.0
-16.7502 37.3728 0.0
-17.262 37.345 0.0
-18.8936 35.9604 0.0
-20.1381 32.5501 0.0
-53.0848 28.0615 0.0
-55.7878 24.5527 0.0
-53.3137 19.1586 0.0
-51.189 26.0942 0.0
-52.679 27.9351 0.0
24.329 -9.52547 0.0
28.2187 -8.94555 0.0
30.0323 -5.37298 0.0
27.7008 -2.79661 0.0
27.2475 -2.69185 0.0
23.1432 30.7717 0.0
26.1686 32.5528 0.0
24.8092 35.5677 0.0
22.6708 36.2118 0.0
18.1492 35.9988 0.0
-56.2619 9.7258 0.0
-55.7995 11.2254 0.0
-59.2632 15.6011 0.0
-59.3621 12.4942 0.0
-59.0333 8.91608 0.0
-58.0932 7.33863 0.0
-13.8755 10.5819 0.0
-12.4346 10.5542 0.0
-8.98941 16.3392 0.0
-9.18498 16.7121 0.0
-10.6169 16.9225 0.0
-12.6656 17.0497 0.0
-15.3632 12.9796 0.0
-15.4061 11.6123 0.0
19.1186 21.905 0.0
20.2062 20.6362 0.0
25.6032 24.4438 0.0
25.2891 25.1652 0.0
21.9985 26.6573 0.0
24.0759 14.2014 0.0
26.6631 13.2492 0.0
29.0702 14.927 0.0
29.5121 18.475 0.0
29.4329 19.2608 0.0
28.0839 20.1032 0.0
27.4411 19.894 0.0
-36.575 30.5092 0.0
-40.8428 32.9076 0.0
-39.9723 26.1349 0.0
-38.454 25.2781 0.0
-29.8039 13.8352 0.0
-31.8566 13.2872 0.0
-32.4521 10.7415 0.0
-30.995 8.89457 0.0
-25.4425 8.86278 0.0
-27.1788 20.6458 0.0
-28.1499 22.0835 0.0
-33.6069 18.3812 0.0
-33.4625 17.1249 0.0
-31.9416 13.9869 0.0
-29.8889 14.5348 0.0
-29.6485 14.6697 0.0
-48.8142 13.5448 0.0
-49.1293 13.1911 0.0
-48.0944 8.16132 0.0
-47.3271 6.86983 0.0
-43.8167 8.50698 0.0
43.4337 -12.4482 0.0
42.5292 -12.2089 0.0
37.0995 -13.0921 0.0
36.8975 -13.5237 0.0
36.418 -16.432 0.0
38.3018 -17.3988 0.0
18.4553 -35.1166 0.0
19.392 -34.9786 0.0
25.6083 -30.2659 0.0
25.5358 -29.8311 0.0
25.2099 -29.3894 0.0
23.325 -29.2277 0.0
18.0304 -32.2523 0.0
18.1099 -34.3775 0.0
-35.2582 -1.27383 0.0
-32.2041 0.351963 0.0
-35.8816 6.79679 0.0
-38.1966 5.63889 0.0
-37.9026 0.331317 0.0
6.83334 27.6095 0.0
3.17936 29.1876 0.0
2.05472 28.6128 0.0
-2.59334 24.7486 0.0
-1.15136 23.4254 0.0
-0.0829488 23.7294 0.0
7.89126 17.6967 0.0
6.71459 17.9596 0.0
1.92057 12.2593 0.0
2.18815 12.0662 0.0
5.7159 11.7445 0.0
7.76198 14.4663 0.0
8.3834 16.489 0.0
-48.4434 7.79126 0.0
-51.9002 8.45544 0.0
-52.9273 4.3798 0.0
-52.1858 4.00105 0.0
-49.6216 3.84158 0.0
-49.2444 4.16753 0.0
-47.7681 6.12865 0.0
-47.6761 6.49977 0.0
-20.5768 -30.5594 0.0
-19.3795 -29.1326 0.0
-20.895 -21.9129 0.0
-21.3508 -21.5077 0.0
-22.1128 -21.4555 0.0
-24.4029 -24.1819 0.0
-25.1947 -25.471 0.0
25.646 38.8569 0.0
25.4889 39.3105 0.0
18.0593 40.4151 0.0
22.6794 36.656 0.0
24.8178 36.0119 0.0
25.5871 37.868 0.0
-7.40043 29.1706 0.0
-6.8532 26.0115 0.0
-5.04599 24.9996 0.0
-4.39879 24.9269 0.0
-3.15051 24.8384 0.0
1.49755 28.7025 0.0
-3.00388 -46.2336 0.0
-0.45384 -44.7285 0.0
1.33231 -43.1003 0.0
-0.360935 -41.516 0.0
-3.99817 -38.0854 0.0
-4.72191 -38.3062 0.0
-4.65442 -42.5848 0.0
-4.58331 -45.7701 0.0
-4.35098 -45.955 0.0
-39.8817 -19.3189 0.0
-42.0323 -18.1905 0.0
-46.1906 -22.2549 0.0
-44.3408 -24.2101 0.0
-43.6033 -24.8845 0.0
54.8823 16.8906 0.0
54.3615 17.022 0.0
50.2038 10.7968 0.0
52.4068 7.95471 0.0
53.6181 8.9417 0.0
32.6735 21.5854 0.0
35.5475 23.0182 0.0
33.0968 27.0291 0.0
29.2454 25.9189 0.0
-17.2615 -57.5226 0.0
-13.9778 -57.5714 0.0
-15.753 -53.5795 0.0
-19.6638 -53.9209 0.0
-20.103 -55.0695 0.0
-18.4557 -56.7805 0.0
-27.1407 -52.8731 0.0
-26.7923 -53.2078 0.0
-23.5602 -55.0965 0.0
-20.7126 -54.8394 0.0
-20.2735 -53.6908 0.0
-20.7945 -52.3871 0.0
-21.7062 -51.2085 0.0
3.5457 57.0921 0.0
7.21652 59.9208 0.0
6.34665 60.5435 0.0
1.47783 61.0677 0.0
-0.713058 60.3687 0.0
-2.83584 58.6951 0.0
18.8797 -42.7409 0.0
13.705 -45.4194 0.0
13.0584 -46.0229 0.0
15.3305 -50.9385 0.0
16.8681 -50.7667 0.0
-15.643 -47.6782 0.0
-13.0849 -49.7813 0.0
-9.36627 -46.3848 0.0
-9.04883 -45.8741 0.0
-10.1677 -44.5425 0.0
-13.5809 -42.994 0.0
-35.4912 38.1073 0.0
-31.6305 37.4069 0.0
-31.3842 41.5777 0.0
-32.2815 44.1289 0.0
-34.6197 43.6006 0.0
21.2849 28.745 0.0
16.4442 31.4742 0.0
15.7985 27.0325 0.0
16.5276 27.0505 0.0
21.3856 27.5178 0.0
-9.60592 44.2492 0.0
-7.84577 44.1778 0.0
-3.8408 46.8598 0.0
-3.87013 47.5209 0.0
-10.0618 48.8434 0.0
15.2056 -15.5088 0.0
16.0438 -10.8607 0.0
13.9578 -9.68885 0.0
10.4172 -14.9537 0.0
10.4222 -15.3083 0.0
20.2522 9.27466 0.0
22.2733 5.55334 0.0
26.6006 9.34516 0.0
26.3435 11.1088 0.0
-35.4029 -3.68728 0.0
-35.5618 -1.73466 0.0
-38.2063 -0.129511 0.0
-41.2964 -1.12599 0.0
-42.8831 -3.22057 0.0
5.23595 -38.5865 0.0
5.65033 -38.135 0.0
4.1233 -33.1181 0.0
-0.303382 -34.2972 0.0
-1.12475 -35.4108 0.0
-1.13832 -35.579 0.0
2.55255 -37.3525 0.0
-12.2848 33.175 0.0
-11.9376 32.2381 0.0
-3.81221 37.3871 0.0
-3.45797 37.962 0.0
-6.34296 39.0262 0.0
-11.9376 35.5312 0.0
-18.1493 16.0094 0.0
-19.1743 18.7302 0.0
-19.7863 19.6664 0.0
-20.8787 19.6294 0.0
-22.5093 18.2199 0.0
-23.6611 14.7849 0.0
-22.6371 12.8031 0.0
-17.2912 57.6238 0.0
-21.7834 58.118 0.0
-23.3043 53.6464 0.0
-22.5935 53.2592 0.0
-18.2416 54.7711 0.0
14.897 9.00641 0.0
17.3388 11.626 0.0
15.4473 14.0678 0.0
14.8972 14.5404 0.0
9.12269 16.3325 0.0
8.50127 14.3099 0.0
0.782896 -49.8332 0.0
1.33288 -53.2263 0.0
7.73545 -49.2594 0.0
8.04736 -48.5967 0.0
8.08258 -47.4057 0.0
6.90648 -47.5434 0.0
11.2284 -3.02628 0.0
6.43076 -1.60034 0.0
5.17478 -5.47893 0.0
5.269 -7.70158 0.0
15.1226 -2.17714 0.0
19.2977 -4.77511 0.0
19.6256 0.91025 0.0
18.7317 1.08429 0.0
16.7991 1.00379 0.0
20.9315 -10.3898 0.0
23.3596 -9.90031 0.0
23.9446 -9.52365 0.0
26.863 -2.69003 0.0
26.5626 -2.46442 0.0
24.1631 -2.69265 0.0
21.3732 -6.29062 0.0
21.1516 -6.98599 0.0
20.4554 -9.9125 0.0
25.2601 39.6201 0.0
25.0851 40.3036 0.0
22.8834 42.3903 0.0
16.8367 43.2776 0.0
15.791 42.3546 0.0
17.8306 40.7247 0.0
13.7491 -44.8356 0.0
18.9239 -42.1571 0.0
19.9096 -41.3022 0.0
17.7166 -37.4484 0.0
14.2068 -39.6354 0.0
-1.28875 13.6494 0.0
-2.05293 14.5443 0.0
-3.16701 14.946 0.0
-5.0797 14.3354 0.0
-8.91188 9.15446 0.0
-8.54599 8.21246 0.0
39.5099 42.953 0.0
36.9057 38.9934 0.0
42.6772 37.3264 0.0
42.1514 41.3428 0.0
40.7447 42.3683 0.0
-20.9948 -2.32185 0.0
-20.7413 -1.73518 0.0
-21.3863 -0.0955054 0.0
-24.2312 3.15646 0.0
-29.0949 1.34646 0.0
-29.6811 0.278686 0.0
-29.5178 0.10849 0.0
-28.0125 -1.39253 0.0
-3.26206 2.84067 0.0
-4.64603 2.70289 0.0
-5.78039 -3.94779 0.0
-5.36319 -4.06412 0.0
-1.99392 -4.30515 0.0
-0.829611 -2.34855 0.0
-0.339113 -0.566794 0.0
-2.19563 2.25409 0.0
17.9349 10.9112 0.0
17.7347 10.9335 0.0
15.2929 8.31391 0.0
14.8631 7.2748 0.0
16.3843 2.41377 0.0
16.7185 1.75076 0.0
18.6511 1.83126 0.0
-14.6594 37.9676 0.0
-13.8378 37.3646 0.0
-7.39346 42.136 0.0
-8.18106 43.619 0.0
-9.94122 43.6903 0.0
-10.4868 43.6096 0.0
-15.4427 -33.2975 0.0
-12.0913 -28.7988 0.0
-14.0103 -27.4257 0.0
-17.5978 -29.1291 0.0
30.6767 48.1643 0.0
26.2886 45.5047 0.0
30.3941 42.3382 0.0
30.5484 42.4012 0.0
31.7949 46.6565 0.0
-12.7892 30.3382 0.0
-16.1591 27.7778 0.0
-15.7462 24.7187 0.0
-12.6342 23.6979 0.0
-11.6854 24.3602 0.0
28.2071 -2.3435 0.0
30.5386 -4.91987 0.0
34.3896 -4.33174 0.0
34.8123 -4.17799 0.0
35.1902 2.38491 0.0
8.50679 -48.8972 0.0
8.19487 -49.5598 0.0
5.64142 -55.6493 0.0
6.08674 -55.9794 0.0
11.9373 -54.1266 0.0
12.1431 -53.7872 0.0
-7.46987 43.9189 0.0
-6.68226 42.4359 0.0
-6.11822 41.5883 0.0
0.55391 43.5493 0.0
0.538805 43.8976 0.0
-3.46491 46.6008 0.0
-22.764 27.8122 0.0
-22.59 27.0626 0.0
-20.8107 20.334 0.0
-19.7183 20.371 0.0
-17.7458 22.8697 0.0
-37.8116 -38.0024 0.0
-30.9527 -35.6585 0.0
-30.897 -33.9249 0.0
-32.9969 -31.2919 0.0
-36.4315 -31.7674 0.0
-36.6198 -32.3903 0.0
1.50553 43.3013 0.0
8.61036 39.9336 0.0
6.68616 44.2515 0.0
3.80918 45.1492 0.0
1.42613 43.7955 0.0
1.44124 43.4472 0.0
-0.10519 52.2216 0.0
2.91816 55.6358 0.0
3.25743 56.7083 0.0
-3.12412 58.3113 0.0
-3.63869 58.0693 0.0
-2.5897 53.4291 0.0
-0.946816 52.0655 0.0
48.1898 -9.84212 0.0
47.5554 -12.1767 0.0
50.3852 -17.7231 0.0
51.1548 -17.6927 0.0
55.4473 -15.5574 0.0
54.8019 -14.6151 0.0
-7.7204 -56.4753 0.0
-6.76716 -56.1365 0.0
-4.18951 -55.1196 0.0
-2.97289 -47.6329 0.0
[...]
<CellData Scalars="cell variable 4" Vectors="cell vector">
<DataArray type="Float64" NumberOfComponents="3" Name="cell vector" format="ascii">
0 0 0
0 0 0
0 0 0
0 0 0
0 0 0
0 0 0
0 0 0
0 0 0
0 0 0
0 0 0
0 0 0
0 0 0
0 0 0
0 0 0
0 0 0
0 0 0
0 0 0
0 0 0
0 0 0
0 0 0
0 0 0
0 0 0
0 0 0
0 0 0
0 0 0
0 0 0
0 0 0
0 0 0
0 0 0
0 0 0
0 0 0
0 0 0
0 0 0
0 0 0
0 0 0
0 0 0
0 0 0
0 0 0
0 0 0
0 0 0
0 0 0
0 0 0
0 0 0
0 0 0
0 0 0
0 0 0
0 0 0
0 0 0
0 0 0
0 0 0
0 0 0
0 0 0
0 0 0
0 0 0
0 0 0
0 0 0
0 0 0
0 0 0
0 0 0
0 0 0
0 0 0
0 0 0
0 0 0
0 0 0
0 0 0
0 0 0
0 0 0
0 0 0
0 0 0
0 0 0
0 0 0
0 0 0
0 0 0
0 0 0
0 0 0
0 0 0
0 0 0
0 0 0
0 0 0
0 0 0
0 0 0
0 0 0
0 0 0
0 0 0
0 0 0
0 0 0
0 0 0
0 0 0
0 0 0
0 0 0
0 0 0
0 0 0
0 0 0
0 0 0
0 0 0
0 0 0
0 0 0
0 0 0
0 0 0
0 0 0
0 0 0
0 0 0
0 0 0
0 0 0
0 0 0
0 0 0
0 0 0
0 0 0
0 0 0
0 0 0
0 0 0
0 0 0
0 0 0
0 0 0
0 0 0
0 0 0
0 0 0
0 0 0
0 0 0
0 0 0
0 0 0
0 0 0
0 0 0
0 0 0
0 0 0
0 0 0
0 0 0
0 0 0
0 0 0
0 0 0
0 0 0
0 0 0
0 0 0
0 0 0
0 0 0
0 0 0
0 0 0
0 0 0
0 0 0
0 0 0
0 0 0
0 0 0
0 0 0
0 0 0
0 0 0
0 0 0
0 0 0
0 0 0
0 0 0
0 0 0
0 0 0
0 0 0
0 0 0
0 0 0
0 0 0
0 0 0
0 0 0
0 0 0
0 0 0
0 0 0
0 0 0
0 0 0
0 0 0
0 0 0
0 0 0
0 0 0
0 0 0
0 0 0
0 0 0
0 0 0
0 0 0
0 0 0
0 0 0
0 0 0
0 0 0
0 0 0
0 0 0
0 0 0
0 0 0
0 0 0
0 0 0
0 0 0
0 0 0
0 0 0
0 0 0
0 0 0
0 0 0
0 0 0
0 0 0
0 0 0
0 0 0
0 0 0
0 0 0
0 0 0
0 0 0
0 0 0
0 0 0
0 0 0
0 0 0
0 0 0
0 0 0
0 0 0
0 0 0
0 0 0
0 0 0
0 0 0
0 0 0
0 0 0
0 0 0
0 0 0
0 0 0
0 0 0
0 0 0
0 0 0
0 0 0
0 0 0
0 0 0
0 0 0
0 0 0
0 0 0
0 0 0
0 0 0
0 0 0
0 0 0
0 0 0
0 0 0
0 0 0
0 0 0
0 0 0
0 0 0
0 0 0
0 0 0
0 0 0
0 0 0
0 0 0
0 0 0
0 0 0
0 0 0
0 0 0
0 0 0
0 0 0
0 0 0
0 0 0
0 0 0
0 0 0
0 0 0
0 0 0
0 0 0
0 0 0
0 0 0
0 0 0
0 0 0
0 0 0
0 0 0
0 0 0
0 0 0
0 0 0
0 0 0
0 0 0
0 0 0
0 0 0
0 0 0
0 0 0
0 0 0
0 0 0
0 0 0
0 0 0
0 0 0
0 0 0
0 0 0
0 0 0
0 0 0
0 0 0
0 0 0
0 0 0
0 0 0
0 0 0
0 0 0
0 0 0
0 0 0
0 0 0
0 0 0
0 0 0
0 0 0
0 0 0
0 0 0
0 0 0
0 0 0
0 0 0
0 0 0
0 0 0
0 0 0
0 0 0
0 0 0
0 0 0
0 0 0
0 0 0
0 0 0
0 0 0
0 0 0
0 0 0
0 0 0
0 0 0
0 0 0
0 0 0
0 0 0
0 0 0
0 0 0
0 0 0
0 0 0
0 0 0
0 0 0
0 0 0
0 0 0
0 0 0
0 0 0
0 0 0
0 0 0
0 0 0
0 0 0
0 0 0
0 0 0
0 0 0
0 0 0
0 0 0
0 0 0
0 0 0
0 0 0
0 0 0
0 0 0
0 0 0
0 0 0
0 0 0
0 0 0
0 0 0
0 0 0
0 0 0
0 0 0
0 0 0
0 0 0
0 0 0
0 0 0
0 0 0
0 0 0
0 0 0
0 0 0
0 0 0
0 0 0
0 0 0
0 0 0
0 0 0
0 0 0
0 0 0
0 0 0
0 0 0
0 0 0
0 0 0
0 0 0
0 0 0
0 0 0
0 0 0
0 0 0
0 0 0
0 0 0
0 0 0
0 0 0
0 0 0
0 0 0
0 0 0
0 0 0
0 0 0
0 0 0
0 0 0
0 0 0
0 0 0
0 0 0
0 0 0
0 0 0
0 0 0
0 0 0
0 0 0
0 0 0
0 0 0
0 0 0
0 0 0
0 0 0
0 0 0
0 0 0
0 0 0
0 0 0
0 0 0
0 0 0
0 0 0
0 0 0
0 0 0
0 0 0
0 0 0
0 0 0
0 0 0
0 0 0
0 0 0
0 0 0
0 0 0
0 0 0
0 0 0
0 0 0
0 0 0
0 0 0
0 0 0
0 0 0
0 0 0
0 0 0
0 0 0
0 0 0
0 0 0
0 0 0
0 0 0
0 0 0
0 0 0
0 0 0
0 0 0
</DataArray>
<DataArray type="Float64" Name="cell vector length" format="ascii">
0 0 0 0 0 0 0 0 0 0 0 0 0 0 0 0 0 0 0 0 0 0 0 0 0 0 0 0 0 0 0 0 0 0 0 0 0 0 0 0 0 0 0 0 0 0 0 0 0 0 0 0 0 0 0 0 0 0 0 0 0 0 0 0 0 0 0 0 0 0 0 0 0 0 0 0 0 0 0 0 0 0 0 0 0 0 0 0 0 0 0 0 0 0 0 0 0 0 0 0 0 0 0 0 0 0 0 0 0 0 0 0 0 0 0 0 0 0 0 0 0 0 0 0 0 0 0 0 0 0 0 0 0 0 0 0 0 0 0 0 0 0 0 0 0 0 0 0 0 0 0 0 0 0 0 0 0 0 0 0 0 0 0 0 0 0 0 0 0 0 0 0 0 0 0 0 0 0 0 0 0 0 0 0 0 0 0 0 0 0 0 0 0 0 0 0 0 0 0 0 0 0 0 0 0 0 0 0 0 0 0 0 0 0 0 0 0 0 0 0 0 0 0 0 0 0 0 0 0 0 0 0 0 0 0 0 0 0 0 0 0 0 0 0 0 0 0 0 0 0 0 0 0 0 0 0 0 0 0 0 0 0 0 0 0 0 0 0 0 0 0 0 0 0 0 0 0 0 0 0 0 0 0 0 0 0 0 0 0 0 0 0 0 0 0 0 0 0 0 0 0 0 0 0 0 0 0 0 0 0 0 0 0 0 0 0 0 0 0 0 0 0 0 0 0 0 0 0 0 0 0 0 0 0 0 0 0 0 0 0 0 0 0 0 0 0 0 0 0 0 0 0 0 0 0 0 0 0 0 0 0 0 0 0 0 0 0 0 0 0 0 0 0 0 0 0 0 0 0 0 0 0 0 0 0 0 0 0 0 0 0 0 0 0 0 0 0 0 0 0 0 0 0 0 0 0 0 0 0 0 0 0 0 0 0 0 0 0 0 0 0 
</DataArray>
<DataArray type="Float64" Name="cell variable 4" format="ascii">
0.316217 0.000510187 6.16323e-05 1.07467 0.249242 0.0032488 5.60239e-07 0.94865 0.000319359 0.000137838 0.23011 0.479217 5.48914e-07 1.04461 1.14453e-06 0.000586701 0.334198 4.61276e-06 0.573608 0.161465 1.34433e-07 0.99432 0.511974 0.511974 0.000425284 0.495708 0.393381 0.00403603 0.0824302 0.163146 0.332003 0.626025 0.980966 3.42138e-05 0.437452 0.161465 0.36504 0.184973 0.00760007 4.69927e-06 0.252014 1.1995e-07 2.42345e-06 5.96913e-06 0.000160982 0.000319359 0.000137838 0.434405 0.000705084 0.657465 0.848855 0.23011 0.442722 0.33356 0.673042 1.19294e-07 1.06245 0.000237451 1.11547 0.912892 0.573608 0.161465 0.187543 1.07467 1.55471e-05 0.542818 1.12037 0.848855 0.130161 0.393247 4.18495e-05 0.503886 0.45141 0.000237451 0.0976075 0.371127 0.000116047 0.0505895 5.96913e-06 1.61534e-05 5.26566e-05 0.00103121 5.60239e-07 0.0032488 0.118662 4.61276e-06 0.0824302 1.10185 1.14226 0.371127 0.184973 0.708918 5.26566e-05 0.000160982 4.42555e-05 0.00273317 0.118662 3.42138e-05 1.38398e-06 6.13175e-07 0.503886 1.04461 1.68594e-06 0.313432 0.631062 0.919422 0.479217 5.76039e-06 0.434405 0.912892 0.542818 0.00370628 0.000157331 0.673042 3.49399e-07 8.33062e-06 2.42345e-06 6.16323e-05 0.000116047 0.789941 0.00403603 0.153908 0.399988 0.343308 0.393381 0.000425284 0.179448 0.573608 0.99432 0.000705084 0.514292 4.42555e-05 0.789941 0.000705084 0.66381 4.18495e-05 1.04772e-07 4.61276e-06 1.04461 0.0505895 2.34778e-08 1.00681 7.58754e-07 0.393247 0.187543 1.61534e-05 0.66381 6.97512e-07 0.32239 8.68069e-05 0.0773391 0.980966 0.00151096 0.919422 1.00681 7.29789e-07 0.23011 0.790107 0.542818 0.000237451 3.42138e-05 0.94865 0.848855 0.136507 1.1995e-07 0.763876 0.657465 1.68594e-06 7.29789e-07 0.36504 0.27464 0.184973 0.00403603 0.371127 0.163146 0.313432 1.00681 4.69927e-06 0.130161 0.0824302 1.12037 0.179448 0.00760007 0.000331293 0.00103121 1.89305e-07 0.657465 1.11547 0.313432 0.136507 1.23799e-05 1.68594e-06 1.07467 5.26566e-05 7.58754e-07 0.000209614 0.94865 0.0773391 1.5044e-05 4.18495e-05 0.790107 1.34433e-07 0.161465 1.55471e-05 0.631062 0.50937 0.45141 3.48316e-07 7.55742e-08 0.442722 0.514292 0.000157331 4.61276e-06 0.495708 0.0773391 0.153908 3.48316e-07 0.136507 1.38398e-06 1.23799e-05 0.252014 0.316217 0.434405 0.00145277 0.000306373 0.8063 0.000331293 0.332003 0.0978407 0.763876 4.42555e-05 0.90618 0.27464 0.187543 0.000510187 0.0646441 1.10185 1.14453e-06 0.00370628 0.631062 1.55471e-05 4.69927e-06 0.343308 0.32239 0.000306373 0.399988 0.90618 0.736473 2.24794e-07 0.0032488 0.00760007 0.393247 0.626025 0.36504 0.316217 0.763876 1.10185 3.09214e-07 0.0097703 0.000705084 0.32239 0.514292 0.184059 1.5044e-05 0.000209614 0.27464 0.0978407 0.0505895 0.437452 4.61276e-06 0.000319359 0.789941 0.136507 0.542818 7.29789e-07 0.000586701 0.136507 3.49399e-07 0.184973 0.0505895 0.187543 3.42138e-05 0.00370628 0.00103121 0.000116047 0.000157331 0.00760007 0.343308 0.50937 0.0097703 0.0505895 0.23011 0.00151096 0.0978407 3.09214e-07 0.0032488 0.000319359 0.184973 0.66381 0.673042 0.912892 0.790107 1.68594e-06 0.179448 0.0646441 0.118662 0.000160982 0.00145277 0.000510187 1.61534e-05 0.631062 0.542818 2.24794e-07 5.48914e-07 0.912892 0.153908 0.130161 1.11547 0.980966 5.48914e-07 0.0824302 0.32239 0.161465 0.399988 4.69927e-06 0.118662 0.153908 1.14226 0.00103121 0.33356 0.163146 0.000137838 0.708918 5.26566e-05 0.626025 5.96913e-06 6.16323e-05 0.495708 0.36504 1.55471e-05 0.542818 0.249242 0.000425284 3.42138e-05 0.000425284 7.58754e-07 0.187543 0.848855 0.000510187 0.434405 0.657465 0.573608 0.919422 0.442722 0.399988 0.252014 0.000137838 0.8063 0.00273317 1.14226 0.000237451 0.343308 6.16323e-05 1.23799e-05 0.919422 0.763876 2.24794e-07 0.313432 0.789941 1.11547 5.76039e-06 0.442722 0.0773391 1.10185 5.96913e-06 0.790107 0.136507 0.184059 0.673042 0.00370628 0.66381 0.000160982 3.49399e-07 0.514292 0.0976075 0.00151096 0.252014 0.249242 1.14226 0.000157331 0.626025 1.04461 0.179448 1.61534e-05 0.334198 8.33062e-06 0.00151096 0.511974 1.06245 6.13175e-07 0.0505895 0.736473 5.76039e-06 5.76039e-06 0.511974 0.130161 0.23011 7.29789e-07 0.23011 8.33062e-06 0.371127 1.5044e-05 8.33062e-06 1.23799e-05 0.179448 0.153908 0.136507 0.184973 2.42345e-06 1.00681 0.495708 
</DataArray>
<DataArray type="Float64" Name="cell variable 5" format="ascii">
0.0909148 0.999974 1 0.00858434 0.138655 0.998946 1 0.0109898 0.99999 0.999998 0.158855 0.0417277 1 0.00908091 1 0.999966 0.082177 1 0.0294962 0.277231 1 0.0100133 0.0367488 0.0367488 0.999982 0.0391044 0.0606986 0.998374 0.595425 0.273099 0.0831765 0.0248813 0.0102849 1 0.0496613 0.277231 0.0698059 0.226167 0.994257 1 0.136034 1 1 1 0.999997 0.99999 0.999998 0.0503251 0.99995 0.0226112 0.0136882 0.158855 0.0485429 0.0824658 0.021599 1 0.00878122 0.999994 0.00797274 0.0118572 0.0294962 0.277231 0.221374 0.00858434 1 0.0328244 0.00790366 0.0136882 0.371169 0.0607373 1 0.037893 0.0467791 0.999994 0.512105 0.0676886 0.999999 0.796223 1 1 1 0.999894 1 0.998946 0.415271 1 0.595425 0.00816951 0.00760594 0.0676886 0.226167 0.0195097 1 0.999997 1 0.999254 0.415271 1 1 1 0.037893 0.00908091 1 0.0923878 0.0244954 0.0116913 0.0417277 1 0.0503251 0.0118572 0.0328244 0.998628 0.999998 0.021599 1 1 1 1 0.999999 0.0157727 0.998374 0.296844 0.0588268 0.0782104 0.0606986 0.999982 0.236958 0.0294962 0.0100133 0.99995 0.0364304 1 0.0157727 0.99995 0.0221905 1 1 1 0.00908091 0.796223 1 0.00976872 1 0.0607373 0.221374 1 0.0221905 1 0.0877689 0.999999 0.62573 0.0102849 0.999772 0.0116913 0.00976872 1 0.158855 0.0157662 0.0328244 0.999994 1 0.0109898 0.0136882 0.349234 1 0.016849 0.0226112 1 1 0.0698059 0.117059 0.226167 0.998374 0.0676886 0.273099 0.0923878 0.00976872 1 0.371169 0.595425 0.00790366 0.236958 0.994257 0.999989 0.999894 1 0.0226112 0.00797274 0.0923878 0.349234 1 1 0.00858434 1 1 0.999996 0.0109898 0.62573 1 1 0.0157662 1 0.277231 1 0.0244954 0.0371116 0.0467791 1 1 0.0485429 0.0364304 0.999998 1 0.0391044 0.62573 0.296844 1 0.349234 1 1 0.136034 0.0909148 0.0503251 0.999789 0.999991 0.0151488 0.999989 0.0831765 0.510913 0.016849 1 0.0120314 0.117059 0.221374 0.999974 0.705275 0.00816951 1 0.998628 0.0244954 1 1 0.0782104 0.0877689 0.999991 0.0588268 0.0120314 0.0181031 1 0.998946 0.994257 0.0607373 0.0248813 0.0698059 0.0909148 0.016849 0.00816951 1 0.990544 0.99995 0.0877689 0.0364304 0.227907 1 0.999996 0.117059 0.510913 0.796223 0.0496613 1 0.99999 0.0157727 0.349234 0.0328244 1 0.999966 0.349234 1 0.226167 0.796223 0.221374 1 0.998628 0.999894 0.999999 0.999998 0.994257 0.0782104 0.0371116 0.990544 0.796223 0.158855 0.999772 0.510913 1 0.998946 0.99999 0.226167 0.0221905 0.021599 0.0118572 0.0157662 1 0.236958 0.705275 0.415271 0.999997 0.999789 0.999974 1 0.0244954 0.0328244 1 1 0.0118572 0.296844 0.371169 0.00797274 0.0102849 1 0.595425 0.0877689 0.277231 0.0588268 1 0.415271 0.296844 0.00760594 0.999894 0.0824658 0.273099 0.999998 0.0195097 1 0.0248813 1 1 0.0391044 0.0698059 1 0.0328244 0.138655 0.999982 1 0.999982 1 0.221374 0.0136882 0.999974 0.0503251 0.0226112 0.0294962 0.0116913 0.0485429 0.0588268 0.136034 0.999998 0.0151488 0.999254 0.00760594 0.999994 0.0782104 1 1 0.0116913 0.016849 1 0.0923878 0.0157727 0.00797274 1 0.0485429 0.62573 0.00816951 1 0.0157662 0.349234 0.227907 0.021599 0.998628 0.0221905 0.999997 1 0.0364304 0.512105 0.999772 0.136034 0.138655 0.00760594 0.999998 0.0248813 0.00908091 0.236958 1 0.082177 1 0.999772 0.0367488 0.00878122 1 0.796223 0.0181031 1 1 0.0367488 0.371169 0.158855 1 0.158855 1 0.0676886 1 1 1 0.236958 0.296844 0.349234 0.226167 1 0.00976872 0.0391044 
</DataArray>
<DataArray type="Float64" Name="cell variable 6" format="ascii">
0.0038835 1.00883 1.00913 5.3719e-06 0.0566856 1.00681 1.00917 1.10661e-05 1.00896 1.00908 0.0671729 0.00051123 1.00917 6.33494e-06 1.00917 1.00878 0.00576492 1.00917 0.000187165 0.298329 1.00917 8.43313e-06 0.00035504 0.00035504 1.00889 0.000410215 0.00151522 1.00605 0.752638 0.294057 0.00364689 0.000115922 9.11938e-06 1.00915 0.000885689 0.298329 0.0019794 0.208208 1.00277 1.00917 0.0441278 1.00917 1.00917 1.00917 1.00907 1.00896 1.00908 0.000857904 1.0087 8.84138e-05 2.09522e-05 0.0671729 0.000858618 0.00403961 7.76673e-05 1.00917 5.74138e-06 1.00902 4.32387e-06 1.38076e-05 0.000187165 0.298329 0.185318 5.3719e-06 1.00916 0.000251962 4.21468e-06 2.09522e-05 0.477444 0.00202135 1.00915 0.000380196 0.000696942 1.00902 0.67289 0.0019189 1.0091 0.900072 1.00917 1.00916 1.00914 1.00849 1.00917 1.00681 0.533485 1.00917 0.752638 4.64493e-06 3.76475e-06 0.0019189 0.208208 5.81379e-05 1.00914 1.00907 1.00914 1.00716 0.533485 1.00915 1.00917 1.00917 0.000380196 6.33494e-06 1.00917 0.00439847 0.000110922 1.32528e-05 0.00051123 1.00917 0.000857904 1.38076e-05 0.000251962 1.00642 1.00907 7.76673e-05 1.00917 1.00917 1.00917 1.00913 1.0091 3.156e-05 1.00605 0.3398 0.00127682 0.00310284 0.00151522 1.00889 0.235078 0.000187165 8.43313e-06 1.0087 0.000349016 1.00914 3.156e-05 1.0087 8.3838e-05 1.00915 1.00917 1.00917 6.33494e-06 0.900072 1.00917 7.8448e-06 1.00917 0.00202135 0.185318 1.00916 8.3838e-05 1.00917 0.00628005 1.00912 0.780596 9.11938e-06 1.00816 1.32528e-05 7.8448e-06 1.00917 0.0671729 3.15261e-05 0.000251962 1.00902 1.00915 1.10661e-05 2.09522e-05 0.432355 1.00917 3.81646e-05 8.84138e-05 1.00917 1.00917 0.0019794 0.02163 0.208208 1.00605 0.0019189 0.294057 0.00439847 7.8448e-06 1.00917 0.477444 0.752638 4.21468e-06 0.235078 1.00277 1.00895 1.00849 1.00917 8.84138e-05 4.32387e-06 0.00439847 0.432355 1.00917 1.00917 5.3719e-06 1.00914 1.00917 1.00904 1.10661e-05 0.780596 1.00916 1.00915 3.15261e-05 1.00917 0.298329 1.00916 0.000110922 0.000394946 0.000696942 1.00917 1.00917 0.000858618 0.000349016 1.00907 1.00917 0.000410215 0.780596 0.3398 1.00917 0.432355 1.00917 1.00917 0.0441278 0.0038835 0.000857904 1.00814 1.00897 2.80904e-05 1.00895 0.00364689 0.674122 3.81646e-05 1.00914 1.4406e-05 0.02163 0.185318 1.00883 0.841792 4.64493e-06 1.00917 1.00642 0.000110922 1.00916 1.00917 0.00310284 0.00628005 1.00897 0.00127682 1.4406e-05 4.69278e-05 1.00917 1.00681 1.00277 0.00202135 0.000115922 0.0019794 0.0038835 3.81646e-05 4.64493e-06 1.00917 1.00014 1.0087 0.00628005 0.000349016 0.235443 1.00916 1.00904 0.02163 0.674122 0.900072 0.000885689 1.00917 1.00896 3.156e-05 0.432355 0.000251962 1.00917 1.00878 0.432355 1.00917 0.208208 0.900072 0.185318 1.00915 1.00642 1.00849 1.0091 1.00907 1.00277 0.00310284 0.000394946 1.00014 0.900072 0.0671729 1.00816 0.674122 1.00917 1.00681 1.00896 0.208208 8.3838e-05 7.76673e-05 1.38076e-05 3.15261e-05 1.00917 0.235078 0.841792 0.533485 1.00907 1.00814 1.00883 1.00916 0.000110922 0.000251962 1.00917 1.00917 1.38076e-05 0.3398 0.477444 4.32387e-06 9.11938e-06 1.00917 0.752638 0.00628005 0.298329 0.00127682 1.00917 0.533485 0.3398 3.76475e-06 1.00849 0.00403961 0.294057 1.00908 5.81379e-05 1.00914 0.000115922 1.00917 1.00913 0.000410215 0.0019794 1.00916 0.000251962 0.0566856 1.00889 1.00915 1.00889 1.00917 0.185318 2.09522e-05 1.00883 0.000857904 8.84138e-05 0.000187165 1.32528e-05 0.000858618 0.00127682 0.0441278 1.00908 2.80904e-05 1.00716 3.76475e-06 1.00902 0.00310284 1.00913 1.00917 1.32528e-05 3.81646e-05 1.00917 0.00439847 3.156e-05 4.32387e-06 1.00917 0.000858618 0.780596 4.64493e-06 1.00917 3.15261e-05 0.432355 0.235443 7.76673e-05 1.00642 8.3838e-05 1.00907 1.00917 0.000349016 0.67289 1.00816 0.0441278 0.0566856 3.76475e-06 1.00907 0.000115922 6.33494e-06 0.235078 1.00916 0.00576492 1.00917 1.00816 0.00035504 5.74138e-06 1.00917 0.900072 4.69278e-05 1.00917 1.00917 0.00035504 0.477444 0.0671729 1.00917 0.0671729 1.00917 0.0019189 1.00916 1.00917 1.00917 0.235078 0.3398 0.432355 0.208208 1.00917 7.8448e-06 0.000410215 
</DataArray>
<DataArray type="Float64" Name="cell variable 7" format="ascii">
0.357275 0.805214 0.804393 0.0863829 0.413855 0.731648 0.910934 0.109939 0.786592 0.818915 0.46057 0.24144 0.895885 0.091923 0.908704 0.789622 0.334908 0.89681 0.203114 0.543895 0.953353 0.10127 0.2268 0.2268 0.777768 0.233945 0.290041 0.781706 0.652741 0.531783 0.340125 0.185875 0.103782 0.881455 0.262734 0.543895 0.311423 0.488241 0.695937 0.865788 0.422896 0.91048 0.886845 0.876672 0.804465 0.786592 0.818915 0.264653 0.790771 0.176526 0.129973 0.46057 0.259721 0.337987 0.172124 0.924335 0.0886341 0.815305 0.0788486 0.116913 0.203114 0.543895 0.511928 0.0863829 0.87201 0.214434 0.0779382 0.129973 0.557964 0.288948 0.828165 0.230311 0.255368 0.815305 0.58928 0.306453 0.821805 0.667622 0.876672 0.855098 0.808066 0.74517 0.910934 0.731648 0.633332 0.89681 0.652741 0.0813708 0.0738515 0.306453 0.488241 0.162493 0.808066 0.804465 0.85435 0.786302 0.633332 0.881455 0.900885 0.926956 0.230311 0.091923 0.922196 0.360012 0.184332 0.115625 0.24144 0.912087 0.264653 0.116913 0.214434 0.736426 0.802201 0.172124 0.887905 0.869271 0.886845 0.804393 0.821805 0.142859 0.781706 0.544906 0.285858 0.329428 0.290041 0.777768 0.481302 0.203114 0.10127 0.790771 0.225806 0.85435 0.142859 0.790771 0.174715 0.828165 0.926865 0.89681 0.091923 0.667622 0.922008 0.0989326 0.900971 0.288948 0.511928 0.855098 0.174715 0.921346 0.347352 0.812727 0.646851 0.103782 0.723507 0.115625 0.0989326 0.91184 0.46057 0.142821 0.214434 0.815305 0.881455 0.109939 0.129973 0.58017 0.91048 0.148901 0.176526 0.922196 0.91184 0.311423 0.399197 0.488241 0.781706 0.306453 0.531783 0.360012 0.0989326 0.865788 0.557964 0.652741 0.0779382 0.481302 0.695937 0.823381 0.74517 0.938631 0.176526 0.0788486 0.360012 0.58017 0.864126 0.922196 0.0863829 0.808066 0.900971 0.803638 0.109939 0.646851 0.867885 0.828165 0.142821 0.953353 0.543895 0.87201 0.184332 0.227704 0.255368 0.905229 0.926812 0.259721 0.225806 0.802201 0.89681 0.233945 0.646851 0.544906 0.905229 0.58017 0.900885 0.864126 0.422896 0.357275 0.264653 0.822606 0.774006 0.139181 0.823381 0.340125 0.570965 0.148901 0.85435 0.118245 0.399197 0.511928 0.805214 0.663687 0.0813708 0.908704 0.736426 0.184332 0.87201 0.865788 0.329428 0.347352 0.774006 0.285858 0.118245 0.15552 0.921969 0.731648 0.695937 0.288948 0.185875 0.311423 0.357275 0.148901 0.0813708 0.914119 0.724735 0.790771 0.347352 0.225806 0.426674 0.867885 0.803638 0.399197 0.570965 0.667622 0.262734 0.89681 0.786592 0.142859 0.58017 0.214434 0.91184 0.789622 0.58017 0.887905 0.488241 0.667622 0.511928 0.881455 0.736426 0.74517 0.821805 0.802201 0.695937 0.329428 0.227704 0.724735 0.667622 0.46057 0.723507 0.570965 0.914119 0.731648 0.786592 0.488241 0.174715 0.172124 0.116913 0.142821 0.922196 0.481302 0.663687 0.633332 0.804465 0.822606 0.805214 0.855098 0.184332 0.214434 0.921969 0.895885 0.116913 0.544906 0.557964 0.0788486 0.103782 0.895885 0.652741 0.347352 0.543895 0.285858 0.865788 0.633332 0.544906 0.0738515 0.74517 0.337987 0.531783 0.818915 0.162493 0.808066 0.185875 0.876672 0.804393 0.233945 0.311423 0.87201 0.214434 0.413855 0.777768 0.881455 0.777768 0.900971 0.511928 0.129973 0.805214 0.264653 0.176526 0.203114 0.115625 0.259721 0.285858 0.422896 0.818915 0.139181 0.786302 0.0738515 0.815305 0.329428 0.804393 0.864126 0.115625 0.148901 0.921969 0.360012 0.142859 0.0788486 0.912087 0.259721 0.646851 0.0813708 0.876672 0.142821 0.58017 0.426674 0.172124 0.736426 0.174715 0.804465 0.887905 0.225806 0.58928 0.723507 0.422896 0.413855 0.0738515 0.802201 0.185875 0.091923 0.481302 0.855098 0.334908 0.869271 0.723507 0.2268 0.0886341 0.926956 0.667622 0.15552 0.912087 0.912087 0.2268 0.557964 0.46057 0.91184 0.46057 0.869271 0.306453 0.867885 0.869271 0.864126 0.481302 0.544906 0.58017 0.488241 0.886845 0.0989326 0.233945 
</DataArray>
<DataArray type="Float64" Name="cell variable 8" format="ascii">