<VTKFile type="UnstructuredGrid" version="0.1">
<UnstructuredGrid>
<Piece  NumberOfPoints="    3285" NumberOfCells="    2408">
<Points>
<DataArray type="Float64" NumberOfComponents="3" format="ascii">
15.4507 38.7839 0 
18.7543 15.9885 0 
-21.3588 -25.8757 0 
47.9727 22.4597 0 
20.4109 6.03588 0 
-26.156 2.33983 0 
-35.2413 36.2542 0 
0.704954 -10.8446 0 
-27.2494 47.416 0 
4.45693 -58.2954 0 
31.4341 -1.76152 0 
7.15262 37.1764 0 
-29.6985 -0.601517 0 
57.3429 -14.3804 0 
33.8776 32.1621 0 
7.15311 -22.9865 0 
29.1739 37.5189 0 
-15.44 40.5535 0 
-55.5748 29.0723 0 
-53.4436 31.5367 0 
26.4187 -19.6631 0 
43.4612 17.9068 0 
62.0847 1.17188 0 
14.2121 2.46987 0 
-7.49664 32.5327 0 
-26.7767 26.0701 0 
-18.2175 -26.028 0 
17.3311 -39.2274 0 
20.5346 -21.6159 0 
-3.06757 -51.436 0 
4.0933 -43.0658 0 
-38.8904 -43.0284 0 
-22.277 -42.29 0 
-41.9419 31.0575 0 
4.42381 -39.1097 0 
-14.962 -32.5417 0 
-18.4224 57.397 0 
20.8698 14.9812 0 
-11.5373 10.2096 0 
-47.8685 6.50206 0 
-37.4134 -43.8912 0 
-17.3296 -46.4783 0 
-0.813598 -23.3128 0 
-50.3404 -25.674 0 
-29.0551 46.2347 0 
-12.2751 52.1412 0 
-27.6167 -0.840614 0 
-13.5204 46.8706 0 
11.4185 48.4423 0 
-27.6242 26.7694 0 
5.55542 44.7661 0 
-45.4569 -24.1531 0 
-57.1245 -21.0871 0 
44.2225 6.18942 0 
-42.0093 34.0381 0 
26.2471 49.8173 0 
37.7615 43.848 0 
23.6839 22.4007 0 
15.8101 -43.9618 0 
-11.6056 34.9024 0 
26.581 17.9231 0 
52.6997 -25.9414 0 
-31.6129 7.83206 0 
-9.18599 -0.826694 0 
-9.17868 -39.8212 0 
34.735 -19.1682 0 
54.5673 -23.7314 0 
-11.0643 -47.7939 0 
-2.52577 -46.3117 0 
-41.9523 26.8464 0 
32.8236 -8.55388 0 
-27.792 -12.2097 0 
7.68884 -60.0298 0 
-49.3302 27.6172 0 
38.7087 7.05662 0 
43.4154 -6.19973 0 
-32.4785 10.4689 0 
-41.5679 28.6261 0 
-10.1788 -46.4666 0 
16.8034 3.40854 0 
-8.12114 19.3086 0 
23.132 34.398 0 
-23.8273 -23.9699 0 
-43.9991 16.8089 0 
-2.16262 -18.6717 0 
4.10365 59.9724 0 
29.0934 -14.1017 0 
47.7565 18.2525 0 
28.9178 33.0062 0 
-2.98124 -47.7601 0 
-48.6053 -28.0088 0 
-15.2986 20.16 0 
52.6403 13.9068 0 
17.9032 28.3462 0 
-51.6073 -21.5044 0 
56.7791 18.3814 0 
5.41983 27.52 0 
7.39408 -53.2284 0 
48.0456 43.008 0 
-54.9807 3.93876 0 
7.18477 -18.193 0 
-4.83015 1.94529 0 
-16.2529 54.1466 0 
-34.2347 -10.8955 0 
29.4344 1.77326 0 
-32.5816 -0.411672 0 
35.0956 35.566 0 
25.802 -1.72017 0 
50.2145 23.8811 0 
-11.4179 -22.9104 0 
-2.75188 -9.02003 0 
-41.3464 28.96 0 
-17.2155 12.0933 0 
23.0319 -36.8029 0 
38.647 42.0367 0 
-0.341418 -33.0289 0 
27.2489 10.0481 0 
3.57149 30.5998 0 
-12.9221 -54.0953 0 
-51.8335 -15.5481 0 
20.6634 51.1734 0 
17.2778 -1.4941 0 
-55.1626 30.2181 0 
-2.51322 27.2295 0 
18.8791 -56.6137 0 
-3.74999 -5.36248 0 
37.3307 1.60352 0 
41.6527 24.0957 0 
11.2835 12.9918 0 
-62.87 -10.278 0 
27.2332 54.2613 0 
-53.0269 -2.92346 0 
26.7241 9.78225 0 
-28.5025 -45.4534 0 
-9.44582 -6.29749 0 
-44.6064 6.24184 0 
-25.2492 -46.7375 0 
20.0916 36.0536 0 
9.99734 20.6385 0 
9.429 -5.81673 0 
54.2069 -3.01406 0 
-9.96682 -57.7329 0 
27.3413 52.4862 0 
-15.1016 40.1595 0 
-29.4724 -7.05829 0 
-28.2823 34.6353 0 
12.7357 -40.0764 0 
-57.2795 -26.2941 0 
-60.7109 -4.42569 0 
0.455126 58.9184 0 
27.5523 -35.2535 0 
15.8146 -58.2913 0 
-43.3459 -33.4677 0 
24.782 -37.9395 0 
-47.9863 21.3234 0 
35.5501 23.2576 0 
21.8604 44.2374 0 
46.6513 29.2646 0 
47.676 36.5528 0 
39.2759 16.0295 0 
-54.0217 -10.1854 0 
-29.5874 -35.3872 0 
47.2583 -1.24208 0 
19.6673 36.6561 0 
-51.1096 22.5851 0 
52.3996 -15.4379 0 
45.4493 32.4623 0 
41.9889 -43.2994 0 
2.8805 41.9158 0 
7.62144 51.7595 0 
-14.5525 50.8982 0 
21.1414 26.1188 0 
-48.4918 3.20877 0 
17.2941 17.5222 0 
14.617 -17.8896 0 
-21.4718 47.2238 0 
-55.4332 -14.0057 0 
-23.284 32.5306 0 
25.9202 -44.8077 0 
34.9559 -21.1947 0 
9.47374 -41.0327 0 
2.63032 56.8299 0 
-19.4019 51.6737 0 
-2.51306 10.1373 0 
-27.2713 46.105 0 
-8.89639 53.7249 0 
34.5906 -35.0021 0 
-5.70497 13.2561 0 
26.6476 -25.9965 0 
-20.4079 -37.0946 0 
5.61677 52.5366 0 
34.9024 14.402 0 
-13.3865 -40.4336 0 
-29.0727 -17.454 0 
14.9246 42.7587 0 
41.9365 24.8645 0 
14.8802 29.3873 0 
-46.7879 21.2632 0 
8.07975 9.93917 0 
-35.3809 -37.3722 0 
14.7211 54.8318 0 
34.8782 -11.2615 0 
-33.6739 27.856 0 
-35.4075 -35.8369 0 
-9.20829 -26.9048 0 
-4.21687 34.4859 0 
-23.576 4.73818 0 
-11.2349 35.743 0 
-5.64801 -12.0565 0 
0.61875 -33.4296 0 
-11.7357 -54.9926 0 
49.5271 4.72636 0 
33.3039 -55.0675 0 
17.2454 -2.48348 0 
15.1245 59.1573 0 
47.3978 -29.721 0 
6.95081 56.4985 0 
-13.6964 44.5613 0 
-19.7113 30.931 0 
-11.962 60.9553 0 
-33.28 46.4434 0 
-1.73159 39.9129 0 
56.2814 5.99715 0 
-14.5292 17.4204 0 
38.888 -26.5306 0 
38.5324 7.51828 0 
40.2079 -28.1041 0 
37.0184 38.6899 0 
37.3498 -49.0453 0 
-10.3185 54.3841 0 
-5.28995 48.2002 0 
39.5074 -4.95079 0 
-32.3902 8.71569 0 
-43.7494 16.2255 0 
53.0962 -23.4251 0 
-39.2661 5.92114 0 
14.4902 18.6058 0 
-18.183 17.1349 0 
-56.1264 27.8281 0 
52.6229 -1.08778 0 
-29.4065 -41.4453 0 
-2.33752 50.1754 0 
-45.5563 -16.8422 0 
17.153 -2.75966 0 
52.5758 -26.8422 0 
-8.29335 -19.6789 0 
5.1362 29.5747 0 
-13.2749 -50.4702 0 
-22.7181 44.2268 0 
-14.5191 -31.6381 0 
-61.4615 0.711449 0 
20.2815 15.3667 0 
17.6101 17.4566 0 
-41.9456 50.1177 0 
18.1211 -50.1896 0 
-21.6478 -55.3647 0 
-42.4556 -34.9432 0 
-10.1928 28.753 0 
62.015 -3.37209 0 
-34.7571 -34.6474 0 
-39.9947 -42.9361 0 
13.7358 -17.1653 0 
24.9533 30.8814 0 
52.9921 -2.68386 0 
9.42573 -38.3122 0 
38.8251 -24.3884 0 
-19.6602 24.0293 0 
-32.4831 -50.2375 0 
-17.6352 2.13645 0 
45.1834 -21.6243 0 
24.9946 -10.299 0 
-30.3492 -27.6617 0 
-34.1879 -5.3946 0 
38.8491 6.92256 0 
34.4631 22.8793 0 
-0.107051 -44.1862 0 
-41.2706 50.0774 0 
26.513 -4.01203 0 
-26.4876 54.1181 0 
-14.3312 -11.846 0 
-19.7306 42.1114 0 
11.5906 41.594 0 
-12.2039 -39.5419 0 
41.5614 -10.7251 0 
21.7139 -14.4811 0 
-20.7004 57.6235 0 
57.7015 -2.30165 0 
17.2595 -1.5923 0 
47.0195 -8.87454 0 
-34.3146 23.0087 0 
-43.7455 -5.05524 0 
-9.43573 -58.7741 0 
-8.02781 40.2292 0 
-40.9318 38.898 0 
-32.6952 -49.9743 0 
7.98578 7.18254 0 
6.27813 -41.0731 0 
0.995364 57.6793 0 
-24.0009 33.1022 0 
-28.9438 -6.95627 0 
-16.9931 17.7657 0 
16.2627 45.1285 0 
-46.4494 -19.1965 0 
51.2342 21.9136 0 
-58.0175 18.5497 0 
44.8616 -37.4866 0 
55.5514 9.41579 0 
3.99065 30.5995 0 
20.5492 54.812 0 
-11.3356 -11.5232 0 
43.8504 0.340237 0 
-20.0919 -2.51402 0 
-54.3096 28.8718 0 
-7.20961 -33.3042 0 
32.904 -11.6291 0 
-54.6976 9.99278 0 
-35.9923 29.6885 0 
-13.0491 -30.4265 0 
-43.0373 36.2435 0 
43.3381 15.4251 0 
18.8261 47.6911 0 
27.477 -30.2468 0 
18.7595 -43.0369 0 
51.3679 4.15124 0 
37.3816 48.3057 0 
-1.13702 -6.43406 0 
-21.9023 -18.7247 0 
15.6494 -49.6824 0 
42.0687 23.1009 0 
-55.556 2.93682 0 
38.6306 -26.1119 0 
-43.7598 -5.10138 0 
4.86054 -18.6112 0 
-19.8859 47.7397 0 
-30.2691 -17.7184 0 
39.9613 -41.4239 0 
-58.0484 17.7043 0 
16.3125 -34.3412 0 
-23.0109 -21.197 0 
-43.868 36.3335 0 
26.0673 -22.5037 0 
-0.907137 32.202 0 
38.8368 -25.5784 0 
1.77542 41.974 0 
24.5193 -51.4696 0 
-37.6601 29.2142 0 
-4.5825 38.193 0 
1.53185 -20.6815 0 
-17.9634 12.7857 0 
58.496 19.109 0 
55.9711 8.47599 0 
-33.9298 12.5571 0 
-31.1667 13.8758 0 
-6.64135 -12.3702 0 
18.0929 -23.951 0 
-33.3856 48.5725 0 
0.177791 11.7116 0 
-0.0853305 59.1074 0 
-12.8733 -29.9286 0 
-21.7525 25.3834 0 
12.4815 -12.6611 0 
5.03467 29.7642 0 
-26.4652 16.1321 0 
-40.3011 12.2985 0 
26.796 -29.4833 0 
6.3404 36.7444 0 
-58.159 3.70325 0 
36.1156 49.9986 0 
-41.3478 1.72366 0 
2.36954 -0.957926 0 
-5.69297 -40.0677 0 
37.8198 11.5589 0 
12.9353 9.95725 0 
-37.5756 21.1389 0 
8.70072 -40.4685 0 
18.8023 -34.9487 0 
1.12501 48.8854 0 
48.5866 8.29992 0 
-21.9637 25.8263 0 
6.74086 -11.1756 0 
-46.0682 -6.89995 0 
50.7397 33.8139 0 
26.223 17.9215 0 
24.2975 11.3346 0 
16.4954 -16.6234 0 
-37.2059 21.2291 0 
-21.9683 9.62976 0 
46.7005 -15.6378 0 
-43.8971 -15.5409 0 
-16.3988 -20.5614 0 
-54.4106 24.2491 0 
-8.7461 7.49366 0 
41.089 24.0648 0 
-36.1357 -13.7567 0 
35.0335 -18.0753 0 
32.3645 -8.39601 0 
-12.5825 10.0636 0 
18.8161 -16.0706 0 
-2.27032 11.5525 0 
47.8277 14.2358 0 
-13.4251 33.2201 0 
-35.4971 -48.041 0 
-7.1301 42.8531 0 
8.71104 -51.7951 0 
6.1083 -59.8071 0 
-25.0288 -55.5764 0 
-25.6284 32.6264 0 
-49.125 21.6148 0 
-8.42525 -18.8778 0 
24.9286 40.743 0 
-45.921 -34.0241 0 
-10.9079 12.246 0 
8.19355 -34.9244 0 
34.2588 -35.3587 0 
13.3702 8.19965 0 
-30.2793 38.9888 0 
-10.5202 -0.351173 0 
0.268545 18.9807 0 
-12.932 -51.487 0 
-12.5377 -3.14049 0 
30.5416 -50.7387 0 
-3.44843 0.363717 0 
14.5216 6.50281 0 
49.1512 25.0725 0 
-33.27 -42.0038 0 
-5.22445 46.1322 0 
10.2566 -42.2705 0 
-14.0725 -20.1671 0 
3.6331 26.042 0 
16.3601 28.0656 0 
-1.08019 40.2937 0 
34.7829 6.00761 0 
-1.16911 19.3811 0 
-19.2877 17.9239 0 
-41.8949 -2.3898 0 
31.4394 -38.5697 0 
-15.8933 -2.42731 0 
11.9206 -11.8377 0 
-47.875 -7.79173 0 
-62.4521 10.6243 0 
-20.9343 -36.0542 0 
10.9729 -58.6561 0 
14.1733 36.6554 0 
13.1418 -35.1747 0 
40.2007 -40.9963 0 
4.54557 8.75022 0 
-23.3006 -15.0207 0 
-2.80313 -39.0786 0 
-22.3863 -35.1524 0 
-0.456928 19.8236 0 
-34.6107 -9.83511 0 
53.016 -24.5378 0 
-57.4699 -12.4226 0 
-41.0524 -25.1231 0 
48.8545 42.7999 0 
37.6362 -42.4068 0 
-0.615104 32.8336 0 
27.017 -38.9595 0 
31.3322 -1.35182 0 
33.5402 20.38 0 
-55.8092 -5.44599 0 
56.6408 3.9464 0 
26.9804 -39.5652 0 
-0.592411 29.9215 0 
-0.771923 44.0365 0 
25.3595 -45.582 0 
-0.0433293 3.62399 0 
55.4321 26.9606 0 
53.0853 13.5249 0 
28.9431 10.7496 0 
-58.8143 -22.2682 0 
2.89053 13.34 0 
30.6792 -49.5177 0 
21.6335 25.4911 0 
20.4667 -6.85371 0 
-16.9084 -40.3002 0 
-3.21335 -42.5228 0 
-18.6966 31.938 0 
29.333 -32.3491 0 
5.66665 45.1622 0 
18.8093 -49.6848 0 
-9.36644 8.64086 0 
25.7697 -37.9513 0 
-21.3907 -11.2083 0 
-17.6915 -26.2643 0 
-15.8205 -10.5468 0 
-14.0289 -13.0008 0 
52.8471 -12.2407 0 
10.0297 -26.1038 0 
-16.7717 -48.006 0 
40.933 5.07537 0 
-53.149 -31.3621 0 
-45.9843 -17.9894 0 
-37.7705 -12.5498 0 
[...]
<CellData Scalars="wall variable 0">
<DataArray type="Float64" Name="wall length" format="ascii">
2.14178 11.231 1.22611 0.221442 8.23663 3.78473 0.466446 0.265547 0.443695 4.00103 0.290659 0.43978 5.91791 1.41297 9.42284 1.21922 8.42377 2.89913 0.827484 9.56039 3.95045 8.72685 0.467105 1.55653 3.32881 3.19953 1.573 6.60014 3.94336 2.11124 3.43484 5.67 4.78119 1.86931 0.719332 6.78308 0.997517 2.34432 1.41024 7.16303 0.217867 0.669774 7.76637 2.48814 7.77513 0.704431 0.997517 0.717664 2.61858 2.77369 2.22281 2.3007 1.17349 1.82519 5.1531 3.61786 1.75107 2.33878 2.32474 2.14152 0.768983 5.10719 5.59569 0.503757 1.41294 7.51222 0.504039 2.37511 1.55829 8.10784 1.19424 1.05665 7.44641 1.46672 1.85941 3.25704 4.20936 2.03614 1.89057 8.80219 0.381358 1.46797 11.2626 1.07788 2.55331 5.24735 4.97306 2.25904 2.37928 2.43576 1.59003 0.245854 4.92622 0.724945 2.52593 1.21899 6.28824 0.0363345 2.85388 5.59905 1.7429 0.697237 2.32115 0.881524 9.08007 4.09449 6.06838 4.99019 0.570348 3.59811 1.53062 0.492286 3.02157 0.909774 5.60382 3.46117 0.376228 9.1601 1.52376 1.72057 2.45113 1.09312 2.37896 1.95851 0.169871 8.01837 0.907701 5.47644 2.0166 2.31181 7.77513 0.515738 10.3521 1.85096 1.07522 1.16754 12.2096 2.47433 1.31716 1.22796 3.48417 1.04903 0.627975 8.55085 1.40798 1.04903 4.75463 6.31287 0.41295 1.19087 9.26009 4.26658 3.40779 1.06154 5.71668 6.71251 0.465316 3.59811 7.27653 0.50697 2.06779 8.72685 1.80052 5.74024 5.4726 3.75199 0.959898 3.55391 1.65811 2.80634 6.77802 8.36257 0.386341 3.51675 6.59608 1.21258 2.65814 2.65316 5.83774 3.54404 10.1018 1.44947 9.79222 0.596025 0.225979 7.05112 4.42556 4.05271 5.2651 0.312624 5.33643 4.6662 2.41425 7.84706 1.22796 2.34745 4.11495 1.88273 2.42795 0.480136 7.15639 4.01308 6.88614 2.95541 0.619912 2.0466 0.228254 2.97319 2.38915 3.41165 0.82044 1.12576 2.21955 2.39636 6.48316 6.3584 2.82834 5.36904 0.274454 2.4292 1.24151 0.13968 1.70549 2.42883 0.0363345 0.329999 5.3758 2.77589 0.782172 6.1643 0.203456 4.37348 5.50769 1.42967 3.82199 7.44631 2.38565 6.50545 5.54414 5.15266 0.235574 2.63375 5.96061 3.89305 0.117548 0.659581 13.2457 2.64428 0.596025 0.419758 4.61696 1.25717 2.23762 6.36573 3.18796 6.07 0.773146 1.28967 8.23967 2.33195 4.42146 1.38745 2.00827 3.06536 4.48365 0.50557 5.77069 5.92564 4.63267 2.33195 1.11747 3.82199 2.53352 3.90176 5.88402 2.80056 0.361615 9.0032 0.834794 12.2287 1.3826 6.93394 0.54619 8.57261 1.22765 2.46758 2.66595 5.47585 0.274454 6.71832 2.638 1.09323 1.97065 6.64264 4.11314 0.50557 4.48365 1.50353 2.01243 2.97319 2.7134 5.36142 5.12782 2.61858 1.22099 3.51359 3.62776 6.52905 8.23663 1.75978 3.32623 6.0842 1.41215 7.27066 2.68278 4.40426 0.768983 3.34579 0.411492 5.26579 10.6163 7.19266 4.20439 2.57184 1.53578 1.25408 7.008 5.75124 3.84787 0.817687 0.73761 7.16784 0.702568 5.33919 1.98156 1.19424 0.158551 0.996858 0.312624 2.80852 0.467105 2.06779 1.07641 9.10224 1.34732 1.29387 7.11558 2.59176 1.82428 4.56271 0.926096 3.03569 1.07641 2.84716 5.43863 3.84787 0.901818 1.7399 4.95968 2.57185 7.40034 1.27391 4.42556 4.66656 2.12345 8.57261 3.44573 0.43978 7.77385 1.53062 3.23584 5.64529 1.101 5.05621 5.34459 0.742043 0.317417 5.67984 5.82822 5.03998 1.5267 1.23945 2.57184 1.20483 1.05734 5.96437 4.83122 0.327758 5.89828 0.607289 10.3657 1.3125 1.76355 0.912392 12.3727 0.340501 0.807041 1.9494 0.782172 5.13852 2.29766 1.64368 9.17888 1.78368 4.75813 6.04466 2.11433 0.265547 5.97253 2.44165 2.80777 1.19567 5.19903 0.627073 0.824246 5.44505 0.413963 10.4425 1.77517 1.75684 2.39636 4.54266 5.82822 1.39291 1.02784 6.77802 1.60704 1.26981 9.92276 3.43484 6.47429 3.91254 0.525875 3.28603 3.55627 3.93589 0.456005 1.07837 3.6113 0.271098 1.26981 6.7242 3.33697 4.85894 1.4655 0.994322 2.60752 7.7428 3.19818 3.43705 2.43576 1.54149 3.47245 7.09099 3.48469 6.27563 1.56262 3.57228 0.619912 2.47275 0.466979 7.008 2.99643 2.01947 5.24735 1.59855 1.8529 8.96396 1.4394 0.251143 8.24711 2.11496 1.85941 3.31664 3.05426 3.98615 8.13724 5.92704 1.38056 1.573 3.28603 2.89101 4.49789 2.27651 4.39076 1.62437 6.36084 3.49993 3.62844 3.13989 2.5403 1.03923 3.93804 6.74169 0.329999 9.08007 3.71187 0.943988 5.92081 2.23546 0.364148 10.237 2.638 3.26111 3.72153 0.245854 2.11768 4.11314 0.45737 7.36187 0.184493 1.83716 5.77069 3.72153 4.66515 5.39893 4.92622 0.404293 1.68479 11.6959 1.14508 12.3727 0.426651 0.965629 1.51328 4.53861 1.0524 8.41964 4.86829 3.7611 4.73601 3.43815 0.909774 3.87362 1.44596 0.386341 4.59428 5.92621 1.41294 7.51125 0.527005 1.05734 2.86135 4.98667 1.06154 1.05837 2.4417 6.06838 4.24694 1.29387 1.382 1.19567 1.65099 1.4684 2.35171 3.87983 5.47395 2.41425 0.710622 0.880538 2.80978 7.46418 1.73908 5.65169 0.627975 1.40798 3.42374 4.8014 2.63375 0.42442 8.87563 0.404293 4.64504 1.07772 4.33517 8.48366 5.12782 0.76019 5.33643 0.996858 4.84886 6.61704 0.595335 4.01308 2.01243 0.559448 6.98019 3.79257 1.0023 0.0708341 0.43243 8.88587 0.392637 1.65811 2.29178 3.66491 0.943988 4.21954 0.461578 5.2966 5.76082 0.34047 3.39633 2.14178 2.11433 5.37497 3.90089 2.17888 0.73761 8.32168 0.724431 7.16303 1.5267 7.16679 1.12576 4.24202 7.58869 1.23945 7.58869 0.376181 1.05665 2.38094 7.07176 0.956984 1.53578 6.22693 6.54913 5.59905 2.18391 1.40342 1.34893 3.98615 1.74661 0.700044 2.91103 7.40482 5.42864 8.62493 1.70549 3.79861 0.618374 1.13688 0.953619 6.22693 2.85388 2.42883 8.62493 1.21206 6.4733 0.839446 1.44947 1.86877 1.88273 2.05649 0.893518 3.93589 0.573367 1.91825 2.62412 3.99228 7.13196 1.38056 0.952467 1.35235 4.22943 1.12282 1.3083 6.60014 5.86839 6.28824 1.7021 3.65947 0.674577 5.95599 1.39588 1.63254 1.17136 3.10163 3.54404 2.64428 0.293661 6.52644 7.11558 4.24694 5.85623 0.796151 5.80391 1.18014 10.6163 0.63185 2.29824 5.06354 0.781485 1.66123 12.2096 4.47911 6.74122 0.286183 2.80974 1.35752 4.48999 1.31545 5.2651 5.24384 3.68978 3.61913 3.35024 1.8529 4.95617 7.2703 5.20438 0.142923 1.27938 0.361615 5.22944 4.58994 6.41802 3.10224 6.24364 1.25301 3.39633 6.22405 2.9248 1.01895 11.231 1.1335 13.2372 1.46386 1.85183 11.5572 1.72682 1.46797 3.36319 3.01729 3.48469 7.51214 2.14592 1.05837 3.40779 0.823876 4.16751 0.817991 1.73819 5.82468 1.22691 9.0859 0.330448 0.942478 6.00553 1.78129 0.916534 1.86779 7.40482 4.13951 5.67 0.704431 2.31181 5.96061 4.8014 4.57347 0.493275 6.11286 2.77369 6.52905 0.404408 4.33517 3.3239 0.142923 8.41311 1.12351 0.700044 1.61409 0.258563 10.5565 3.03569 1.86331 1.01898 6.86512 9.10224 3.10163 9.35133 2.42795 1.86877 10.1018 4.54266 2.21955 7.16679 5.03998 0.525875 9.48499 2.89859 7.2185 1.00541 2.89101 4.95968 1.96617 2.66595 4.59869 6.01218 0.213135 0.189492 4.19555 3.90454 2.97008 9.0859 2.03286 5.96437 0.527005 4.09449 0.465316 3.95045 4.33569 0.42551 9.28955 4.56271 3.73867 3.27867 2.19018 0.881421 0.472643 6.13523 1.28287 4.19407 8.41637 0.517733 6.66319 2.12576 1.41844 4.40877 5.15266 2.68314 8.00519 3.0482 8.3864 0.965629 7.29984 5.84857 4.02631 2.55991 4.40022 3.56443 1.52624 1.90208 6.53518 2.9605 5.9441 5.18112 11.371 0.38849 7.7428 2.6826 0.679949 5.92081 3.66491 3.6113 8.26795 0.823876 4.26658 2.98898 1.01522 0.293661 6.36573 1.60512 1.45616 1.65291 0.690679 7.37902 0.750637 1.7637 6.329 2.34393 2.52047 9.00263 1.55984 7.4031 0.959898 1.47818 3.79257 3.05724 3.06456 5.38259 3.51811 4.61696 3.88299 10.449 1.41802 6.31287 0.158551 8.10784 1.47512 4.84886 1.50353 8.48366 3.98152 7.31668 0.881421 0.711426 1.41297 5.15285 3.41424 3.15781 7.07176 1.81843 2.9248 5.70745 2.0466 3.57228 1.33875 2.537 7.15755 1.68497 6.29632 3.56443 0.608473 5.14567 0.697237 0.928654 7.24323 0.815682 4.22943 6.19998 0.189215 5.71668 4.98667 2.06631 8.95942 0.513058 0.679402 7.64986 2.33878 2.70114 9.04683 2.56164 5.24384 4.05271 1.27391 1.16739 2.82194 2.52772 4.02631 0.525095 5.76082 3.75826 7.85416 1.40398 1.56707 5.24962 1.12282 0.815682 0.886583 7.20319 5.19903 1.382 1.34732 6.86512 8.29067 0.50697 7.9758 0.821866 4.93478 0.651031 6.33963 0.702568 6.78308 5.36731 0.172251 1.101 0.754642 4.44415 0.496597 1.22099 0.717664 3.05426 5.20302 2.38915 2.17516 1.61409 1.74661 3.53619 5.55107 0.504039 4.19769 0.947542 0.105298 2.26029 0.251143 2.05649 4.11495 3.97941 3.90454 8.0015 0.63185 5.26579 3.5829 5.1531 2.96756 2.3035 3.5839 4.03987 6.24364 1.78733 3.90259 4.81409 0.799061 7.12614 2.34432 1.61009 5.78561 4.97915 2.57185 6.01218 3.24859 5.93046 1.77307 7.0671 4.19291 2.38939 0.364148 0.958968 8.7306 1.3826 2.11569 3.00605 0.798375 4.19291 0.363687 3.22748 4.73601 3.91921 1.57093 4.03493 1.52624 6.29632 4.74182 1.91232 2.51286 3.99228 1.18919 4.75813 1.05332 0.562531 0.608473 4.40022 1.7775 1.54149 2.37928 6.74754 5.17514 5.6347 2.00827 3.76171 2.04431 4.13951 2.91103 1.12351 3.76379 1.50149 4.78119 2.29178 8.36257 1.02784 4.35088 3.33697 0.38849 0.942478 7.44088 2.47433 0.374007 0.286183 1.36563 2.86487 2.82865 0.648485 5.28215 7.2185 1.59699 0.466268 6.42887 4.101 2.32115 5.14567 0.562531 5.33946 3.69318 6.7242 1.60704 2.80634 0.392637 3.37006 0.916534 7.63734 4.85894 4.35088 1.39291 1.49085 0.275596 7.36525 2.75383 2.98898 6.71251 0.189215 0.754642 5.67984 7.23557 0.404971 2.67002 7.0828 0.275596 8.95942 0.390465 2.8057 1.21206 8.62124 0.932782 3.07084 0.710622 4.6662 0.76019 5.36142 6.01944 2.04157 2.98685 0.690679 2.80756 3.05724 6.98019 6.40003 1.71301 3.90089 1.41024 7.12614 0.22632 5.40805 4.47911 1.16754 1.20294 3.45913 3.18796 1.87328 2.43231 8.41637 3.83526 0.42551 0.820811 3.4307 6.1357 0.570348 4.74088 0.747045 7.9758 7.27653 3.12985 6.17273 3.62844 2.90177 3.0566 5.9398 0.659848 3.71426 6.59608 0.884411 0.0693634 0.651031 0.383233 2.79398 4.54243 1.7637 2.90699 0.790347 6.50545 4.29541 4.91288 1.53794 1.55984 2.80756 1.65291 1.27938 10.5565 2.32007 9.0032 1.86779 2.0166 6.01339 0.630158 0.13968 8.77243 2.18391 4.64517 2.22281 5.32968 5.95599 1.34024 0.679949 7.13808 4.45032 5.3758 2.23546 0.383233 2.38565 4.40877 0.347045 5.50769 4.88657 2.84716 1.82428 0.251654 1.53527 0.585373 5.18112 4.30155 5.03374 2.57627 2.99229 10.4425 1.53835 0.829492 6.63678 2.79398 4.88657 4.37348 4.87189 0.0595927 0.533297 1.77456 1.16739 3.44573 0.54619 3.99903 7.70958 2.14902 1.19662 4.53861 3.80751 6.52104 4.85106 1.82747 5.58947 3.0566 1.35476 3.88416 2.08868 5.24732 4.87189 0.203456 0.824107 6.2589 0.90395 6.77522 2.33561 1.30264 3.38145 2.89913 4.64517 7.38824 2.04157 0.559448 0.796475 2.3007 0.595335 2.15651 0.760626 0.820811 3.27867 1.65705 3.77315 0.884278 6.88614 3.39539 1.73819 2.09006 5.10364 0.659848 3.72126 0.217867 0.724431 3.78791 5.93046 1.06947 3.00605 8.51578 4.48999 6.35186 1.82747 0.624906 3.99835 3.19032 5.66187 3.4307 0.760626 6.02233 1.47512 1.55829 1.19883 6.02233 2.15651 6.61704 5.60382 3.43815 3.22748 7.5918 4.6607 2.8627 2.537 4.33463 1.80052 4.90518 0.940317 5.96286 1.36563 6.74122 5.40805 0.720403 2.70787 3.72126 5.9398 4.93478 3.51811 0.767553 4.33569 3.19953 3.06975 3.28409 1.25717 2.17516 6.48316 1.75684 1.05596 1.4675 0.170613 1.1335 2.62434 0.834794 2.32007 0.258563 4.86829 1.27867 2.99643 1.25408 0.956984 3.15781 0.673872 7.29984 2.76183 4.30155 5.9441 3.11933 3.77315 5.91791 5.64529 3.12649 5.15285 4.96942 4.81409 3.81952 3.90877 2.23908 4.40426 5.92894 2.29766 0.952511 5.10719 1.25518 3.34161 0.607289 1.19333 7.52828 8.30438 3.89577 1.61954 2.98191 5.40462 1.44596 4.19709 1.64926 3.10563 0.617133 4.66656 7.05112 0.479666 8.27127 1.17349 0.796475 8.88587 3.43946 4.54963 4.83122 2.03286 0.767553 5.38259 4.52212 1.05596 1.77517 2.99229 5.43613 0.144812 8.65927 2.04431 2.4661 4.96969 3.98152 3.20791 0.376228 1.3087 8.96396 3.35024 1.171 1.61954 11.0377 0.556278 3.31664 1.46672 4.6195 3.41165 5.20302 0.461578 4.95821 4.13397 1.76799 1.0524 1.19662 6.28741 5.70871 4.19709 3.87362 3.02157 2.33057 2.69028 1.95563 2.5403 4.01851 2.52772 6.05372 2.80269 6.27645 1.60512 2.23762 3.28409 1.00894 7.20319 2.78887 2.53352 1.42967 0.347045 1.41844 3.42374 9.26009 3.51362 4.57347 3.10014 5.68092 6.01339 5.47644 3.37006 5.2966 6.28741 2.14902 3.16376 2.38939 0.798375 1.06947 3.24859 4.59869 1.09323 10.237 3.79861 6.1643 1.9494 0.970249 2.37436 1.85124 1.254 2.86487 5.96286 2.07721 6.99892 1.50749 7.09099 0.646317 6.19998 1.35235 5.05737 1.34024 0.674577 7.37902 2.98685 7.38824 6.329 4.54243 0.533297 8.03372 4.99019 2.4417 2.14592 5.85752 4.74088 3.23584 9.1601 3.20791 3.41424 3.12649 1.01363 1.22765 2.12345 0.617133 2.78907 5.17514 8.65927 4.33463 1.33875 1.56262 3.26299 0.888776 1.50096 5.74024 2.02221 7.49562 2.33737 3.29881 5.07034 2.661 6.64847 1.25518 1.06689 1.03923 1.95563 7.21855 1.41672 0.493275 3.51362 1.19087 0.721951 5.80391 7.9289 3.46117 7.5918 0.363687 7.0671 2.46758 1.01363 0.144812 2.8057 4.52434 3.55815 6.4733 0.556278 1.56406 3.93042 4.00103 7.12682 3.23277 2.59848 5.21291 0.105298 10.4246 1.01251 2.81806 7.72254 0.499582 0.901818 5.75124 2.02034 1.75978 0.221442 0.433848 0.480136 9.35133 1.17136 1.97801 10.449 1.3087 7.12682 0.443695 1.86557 3.05618 3.53619 1.4394 2.82016 5.88402 2.49752 1.725 1.90208 4.03493 5.4726 1.50096 3.80461 0.962873 2.70623 4.8268 2.65814 1.1366 2.74402 5.07034 5.18098 4.59428 5.83774 0.643614 9.31604 1.78326 1.03725 6.05372 2.82194 1.77456 1.26477 3.65947 3.78092 1.08199 2.80974 2.56164 4.01851 3.13989 6.17273 1.7775 6.53518 1.725 2.40342 0.928654 0.646317 3.47245 1.61009 7.76637 0.0746117 2.98191 1.171 3.61913 0.889334 1.01142 5.22944 2.80056 0.308486 1.85183 1.82582 1.35323 2.99082 2.34393 8.03372 0.0595927 5.24732 3.69464 1.85124 1.13728 4.35692 9.17888 0.918581 2.89805 4.67309 5.92621 1.78326 1.46023 4.19769 7.51222 1.96617 1.7399 0.499582 4.20745 2.0231 2.4292 5.47585 0.719332 6.38757 5.03174 5.36731 3.78677 5.78469 1.40398 1.00894 2.12576 4.6073 0.717816 8.13724 1.34893 8.96913 3.97568 0.817687 7.40034 1.77307 3.78791 8.32168 3.01729 2.04067 4.38053 3.26299 6.27563 3.05618 1.39011 0.633731 3.19032 1.19883 2.37511 5.55107 0.940317 10.0984 2.32474 7.64986 1.59954 2.07721 3.34161 6.64847 2.75859 10.3657 4.1708 8.01837 0.702054 7.2703 1.01142 5.93457 3.78092 1.7021 1.21899 5.26034 6.08631 1.37331 2.2106 3.94336 1.3083 5.24962 3.51675 7.51125 0.503757 1.98156 6.0577 0.884411 1.56406 11.0377 3.89577 5.70871 2.85753 0.893518 8.0015 4.19555 3.3179 8.62124 2.75859 7.21855 2.69028 1.03725 5.93457 1.51859 1.3125 1.87112 4.95617 1.59855 3.13382 2.59848 1.08598 2.33737 1.07772 5.45704 2.27651 1.35923 3.10014 0.907701 2.48814 3.3239 2.21197 5.43613 2.57627 1.27062 6.10879 0.844783 11.371 0.585373 0.876191 11.2626 1.72682 6.33963 0.0693634 6.0577 5.33919 0.651562 0.685586 0.28787 7.34564 0.806074 9.48499 3.91254 3.16376 6.52104 2.42361 0.573367 3.55627 3.69318 0.633731 7.04809 6.1357 5.66187 2.78907 3.10563 1.62613 1.97065 3.06536 5.6347 1.35752 1.08199 3.12985 5.58947 6.35186 0.317417 5.80657 1.01803 4.80209 7.23557 2.02221 4.30406 5.97253 0.466446 0.0511571 4.97915 2.45344 3.73867 5.43863 5.03374 2.76183 1.65705 1.26477 7.70958 0.594931 0.958968 2.11768 1.59003 5.86839 1.62613 1.64926 0.225979 1.31545 3.99835 1.44681 0.427275 0.45737 6.64264 0.496597 7.59995 2.67002 0.914232 6.16759 3.51359 1.77749 1.73908 0.235574 0.705414 4.75516 4.65714 10.3521 4.64504 0.426651 0.912392 4.03733 4.39076 5.45704 5.58231 0.618541 4.49789 1.00541 5.28215 1.57796 1.30264 3.85372 4.94399 5.58231 2.33561 3.04438 0.953619 3.44743 3.91921 1.68497 1.7429 6.54913 0.426557 3.75826 5.37497 6.04466 1.18919 2.62412 0.747045 5.85752 5.82468 3.39539 2.70787 0.821866 1.51859 5.26034 2.52593 0.873705 1.62437 4.03733 1.76355 3.56073 5.44505 1.85867 2.4661 3.76171 1.38745 0.0746117 0.669774 8.51578 2.11569 3.7611 5.40462 2.02034 7.16784 2.17888 1.71301 3.19425 3.32623 2.80978 2.83879 4.29541 1.45616 6.27645 0.638283 1.87328 8.23967 1.2156 1.41215 7.68061 2.11124 2.2106 3.70218 2.21843 0.651562 6.47429 5.20438 0.702054 0.169871 4.1698 3.76379 8.41311 0.170613 1.96973 1.21922 3.02327 3.0482 3.21637 0.378059 1.69099 13.2372 1.8135 5.92564 1.83716 1.26968 4.40733 5.96261 5.32968 3.61786 3.5829 0.411492 3.70133 1.39588 4.96969 1.85867 0.824246 0.457072 4.11502 0.472643 7.31668 3.02327 9.56039 2.0122 1.1732 8.3864 1.87415 10.4246 0.947542 1.46023 9.31604 5.10364 0.991369 1.91232 2.62673 1.1366 1.21258 3.71426 0.720403 0.22632 7.68061 3.34579 2.14152 10.0984 5.84857 0.673872 5.70745 6.22405 0.34047 0.525095 2.65316 5.18098 3.29881 1.08598 3.23277 1.87415 0.643614 2.13997 1.25301 4.03987 4.96942 0.739223 11.6959 3.78473 6.0842 3.19425 6.40003 0.799061 0.0511571 1.86931 1.50149 4.1698 1.95851 0.704083 6.38757 2.80852 7.84706 5.47395 0.608218 1.55653 1.27062 6.63678 5.9338 0.908706 3.85372 2.98093 2.83879 0.880538 3.07084 0.327554 4.6607 0.357696 4.91288 1.27867 8.41964 1.76799 0.670837 3.18339 4.97306 2.01947 2.08307 0.42442 0.404408 3.62776 6.16759 1.89424 0.373706 6.41802 1.53835 0.413963 1.20483 4.20439 0.466979 2.55331 3.43705 6.43379 2.40342 2.49752 3.90176 2.78887 0.886583 7.24323 4.4376 4.01019 6.00553 0.648485 5.29967 0.513058 1.40342 8.77243 1.24151 2.0231 0.562844 8.96913 9.79222 0.839446 3.55815 0.808265 0.327758 4.54963 3.06456 0.419758 1.86557 9.42284 0.711426 2.19018 2.43231 7.04809 1.39011 4.4376 9.04683 2.41123 0.994322 5.49645 1.29565 5.96261 2.30491 0.55435 4.37505 0.771697 1.65099 2.80777 3.48417 7.15639 0.433848 3.88299 4.75463 2.661 2.74402 2.62673 4.74182 1.78368 4.30406 4.80209 5.27142 2.29128 2.36322 1.89424 0.914232 0.404971 1.07837 8.01425 4.16751 8.26795 0.965793 0.824107 7.44631 1.11747 2.82016 1.57093 3.44743 1.13688 4.44415 7.0828 7.59995 1.78129 4.01019 5.49645 1.4655 7.63734 0.308486 12.2287 2.62434 11.5572 1.49085 9.92276 0.271098 1.01522 2.75383 6.25068 0.213135 1.22691 4.45032 1.03747 5.59569 0.952511 5.13852 2.77589 2.6826 2.60752 2.41123 2.70114 1.75107 1.03747 7.13808 2.45344 5.78561 0.889334 3.68978 1.87112 7.49562 0.456005 7.13196 2.51286 0.991369 2.09006 0.817991 8.01425 0.172251 5.03174 0.704083 2.37896 2.37181 1.98571 5.05621 0.228254 7.15755 2.8627 0.327554 6.01944 2.7134 3.69464 6.2589 0.965793 0.618374 5.42864 1.254 5.51397 6.74754 2.25904 3.18339 4.49515 5.34459 1.98571 11.0976 4.63267 1.8135 1.29565 2.44165 3.56073 4.42146 6.13523 4.11502 9.43993 1.96973 1.4675 4.52212 2.21197 0.42634 0.90395 8.42377 3.26111 6.71832 5.36904 1.79175 4.66515 0.608218 7.46418 0.638283 2.80269 3.06975 3.32881 1.00582 3.75403 0.425383 4.72718 3.21637 8.00519 0.330448 2.97008 3.97941 2.34745 1.31716 7.44088 0.290659 3.93042 2.85753 2.33057 0.492286 7.77385 0.908706 1.30416 5.05737 0.952467 5.92704 0.618541 4.94399 3.25704 2.11496 0.717816 3.48685 2.81806 5.60711 2.55991 7.85416 0.426557 1.91825 2.42361 3.80751 1.51328 4.21954 3.71187 0.881524 4.101 1.50999 4.95821 8.7306 0.594931 3.99903 6.93394 0.844783 7.51214 2.47275 2.95541 0.884278 3.11933 2.9605 1.57796 6.42887 4.00974 1.42397 2.0122 0.827484 3.38145 3.48685 3.97568 0.562844 4.20745 7.72254 3.83526 4.19407 1.53661 1.86331 0.926096 9.28955 0.932782 3.3179 0.189492 6.25068 7.36525 4.43892 0.963242 6.08631 1.56707 5.78469 1.50999 5.33946 1.05332 5.51397 0.670837 4.13397 3.75199 4.8268 5.88691 3.10988 1.0023 1.47818 0.829492 6.43379 3.19818 1.50749 1.30416 5.9338 3.13382 8.24711 2.26029 5.21291 3.08971 3.8713 2.52047 1.13728 2.37436 7.9526 2.86135 5.89828 0.808265 4.52434 0.390465 2.06631 4.20936 5.60711 1.01251 1.22611 1.01895 1.81843 2.38094 0.42634 6.10879 2.98093 3.04438 6.77522 2.08307 4.58994 2.13997 1.68479 8.87563 0.376181 4.24202 0.82044 4.6195 7.44641 1.84247 6.36084 0.873705 0.724945 5.39893 1.79175 2.82834 3.70133 7.19266 1.18014 0.721951 0.41295 1.41802 1.97801 1.63254 1.35923 3.49993 1.84247 6.3584 0.630158 5.68092 1.28287 9.43993 0.457072 0.627073 8.29067 1.01898 1.53661 1.53794 0.357696 4.90518 3.55391 7.4031 0.374007 8.55085 5.65169 1.77749 0.515738 1.66123 2.82865 6.99892 1.59954 0.679402 5.29967 
</DataArray>
<DataArray type="Float64" Name="wall variable 0" format="ascii">