<VTKFile type="UnstructuredGrid" version="0.1">
<UnstructuredGrid>
<Piece  NumberOfPoints="    2370" NumberOfCells="     395">
<Points>
<DataArray type="Float64" NumberOfComponents="3" format="ascii">
-1.28296 -7.11871 0.0
-2.42472 -9.23945 0.0
1.36912 -19.6138 0.0
2.75518 -19.3199 0.0
2.85223 -19.0846 0.0
0.598358 -10.8785 0.0
-0.435077 -7.04655 0.0
-0.996596 -6.99151 0.0
23.6851 21.8228 0.0
23.8757 21.4091 0.0
25.9453 17.8494 0.0
26.2598 17.8509 0.0
26.7359 17.8532 0.0
32.4593 19.9964 0.0
32.9003 21.4884 0.0
-3.38052 -46.852 0.0
-2.98696 -45.5738 0.0
-10.5817 -46.9469 0.0
-12.5276 -49.3183 0.0
-12.2367 -50.214 0.0
-7.05432 31.7532 0.0
-9.50395 28.4498 0.0
-0.958693 29.4685 0.0
-0.581749 29.8695 0.0
-1.25461 31.4564 0.0
-4.1648 33.4911 0.0
-29.1282 -40.4501 0.0
-28.6551 -38.7772 0.0
-34.4555 -36.8875 0.0
-34.6959 -40.9462 0.0
-32.5665 -40.9281 0.0
22.7742 -36.9868 0.0
17.2067 -38.52 0.0
15.8303 -42.7473 0.0
18.4276 -41.8904 0.0
23.8109 -37.4231 0.0
9.08796 -1.82779 0.0
8.63351 -4.26591 0.0
9.49171 -5.46624 0.0
16.3242 -2.73344 0.0
16.4023 -2.49312 0.0
16.4242 -1.71913 0.0
28.4548 -31.9248 0.0
26.8235 -30.0355 0.0
22.9019 -35.8639 0.0
23.4233 -36.4078 0.0
24.46 -36.8441 0.0
25.3137 -36.8574 0.0
26.8529 -34.4698 0.0
-14.1224 50.1963 0.0
-12.1304 51.3418 0.0
-10.4343 53.3184 0.0
-10.5987 54.5975 0.0
-11.5806 56.2323 0.0
-15.6281 53.09 0.0
-48.0436 4.66295 0.0
-47.3135 6.43981 0.0
-48.3331 8.83523 0.0
-50.515 10.026 0.0
-52.8039 10.159 0.0
-53.3492 9.51379 0.0
-53.6207 4.15418 0.0
5.49599 27.4409 0.0
5.82892 27.0253 0.0
6.98492 26.0963 0.0
14.2451 24.5583 0.0
14.5556 25.0182 0.0
15.494 27.4681 0.0
14.1799 28.6049 0.0
5.57481 28.8051 0.0
0.0788259 -26.0745 0.0
-0.440947 -27.5307 0.0
-0.0267395 -32.0646 0.0
0.813728 -32.4123 0.0
6.6737 -30.3444 0.0
7.2344 -28.3907 0.0
4.20138 -27.083 0.0
36.9092 45.5898 0.0
36.2769 47.545 0.0
35.1589 49.0743 0.0
27.3164 52.9616 0.0
26.9759 52.7702 0.0
27.3736 51.3089 0.0
36.5972 44.5323 0.0
-20.8331 -25.016 0.0
-18.0666 -25.1802 0.0
-16.3995 -20.3222 0.0
-21.2785 -18.7122 0.0
-22.2257 -20.9136 0.0
-22.9859 -23.3457 0.0
34.2492 -11.3417 0.0
32.6192 -11.4203 0.0
32.5113 -11.6871 0.0
33.8517 -16.8039 0.0
34.4185 -17.3675 0.0
37.0234 -16.3471 0.0
38.1549 -15.6382 0.0
-42.3797 -5.34703 0.0
-42.3916 -5.38717 0.0
-41.4608 -8.33406 0.0
-37.0746 -11.969 0.0
-35.6513 -13.0651 0.0
-34.9067 -12.8879 0.0
-33.9748 -10.5513 0.0
-34.2963 -9.62182 0.0
-10.6885 27.4641 0.0
-14.7301 26.0396 0.0
-14.8047 20.1529 0.0
-10.7487 23.3697 0.0
-10.4153 23.8765 0.0
28.5949 10.2666 0.0
27.112 9.62642 0.0
26.635 9.42038 0.0
27.2056 6.20525 0.0
28.0591 5.72049 0.0
33.7993 6.12208 0.0
37.2903 6.97033 0.0
37.1386 7.37277 0.0
15.6978 -56.8151 0.0
17.2493 -56.6603 0.0
18.43 -55.3334 0.0
19.2191 -52.8723 0.0
19.0555 -51.7118 0.0
17.6621 -49.5447 0.0
15.4995 -49.0833 0.0
15.3518 -49.2022 0.0
26.5909 -29.8923 0.0
25.9923 -29.2072 0.0
21.319 -31.8482 0.0
20.9352 -33.9372 0.0
22.6693 -35.7207 0.0
-41.8472 30.3939 0.0
-41.9957 30.9666 0.0
-52.1528 30.848 0.0
-53.705 29.697 0.0
-54.0572 28.6578 0.0
-52.9131 28.4935 0.0
-40.7201 30.5685 0.0
-40.2093 28.7354 0.0
-36.9882 28.9749 0.0
-35.5263 29.3493 0.0
-34.9657 30.595 0.0
-34.1638 34.2646 0.0
-34.8238 35.1146 0.0
-40.8336 33.1748 0.0
-40.8685 31.1413 0.0
-33.9954 37.4068 0.0
-34.1382 35.9392 0.0
-33.4783 35.0892 0.0
-29.7802 38.4045 0.0
-27.1278 44.6884 0.0
-27.3928 45.0698 0.0
-28.6918 44.8156 0.0
-21.4553 9.84072 0.0
-17.95 12.6824 0.0
-18.1821 16.4884 0.0
-19.1458 17.1845 0.0
-24.9846 15.5926 0.0
-9.66348 28.0838 0.0
-10.0423 27.7424 0.0
-9.76902 24.1548 0.0
-2.82341 26.7619 0.0
-2.38854 27.1197 0.0
-1.11822 29.1025 0.0
5.68258 51.7218 0.0
7.431 50.9919 0.0
12.1946 53.8011 0.0
6.83236 55.1663 0.0
3.00699 55.5118 0.0
-29.0206 -0.298004 0.0
-27.1933 -0.472803 0.0
-25.9027 2.31849 0.0
-30.7397 7.21791 0.0
4.37974 18.6187 0.0
3.99323 18.7054 0.0
0.365079 18.2415 0.0
-1.89169 11.6761 0.0
-2.15436 10.434 0.0
0.218379 11.8353 0.0
2.61657 13.2529 0.0
-15.6993 40.1804 0.0
-19.376 40.9274 0.0
-24.6435 32.4854 0.0
-23.2095 32.9381 0.0
-15.5892 39.5208 0.0
48.3936 3.99934 0.0
48.2214 4.18999 0.0
43.1914 0.292085 0.0
43.3848 -4.19617 0.0
46.1818 -1.0736 0.0
3.5282 30.5138 0.0
3.89194 30.5224 0.0
5.96814 35.9344 0.0
3.13015 39.7952 0.0
2.1511 37.5605 0.0
-34.2781 30.4483 0.0
-34.8387 29.2027 0.0
-32.7891 27.6017 0.0
-28.3995 28.7297 0.0
-27.4272 30.6995 0.0
-27.5837 33.2923 0.0
-27.9967 33.541 0.0
15.3895 38.3007 0.0
19.1032 36.3924 0.0
19.9781 43.1387 0.0
16.7916 44.0239 0.0
16.0743 43.8629 0.0
14.9412 41.779 0.0
14.8211 41.5406 0.0
3.94782 -38.0915 0.0
2.68815 -35.9552 0.0
0.552663 -33.0895 0.0
-0.287805 -32.7418 0.0
-1.39966 -33.2771 0.0
-2.45316 -35.4345 0.0
-2.46435 -38.0809 0.0
19.4523 -24.1769 0.0
19.5981 -24.2333 0.0
33.238 -18.9526 0.0
33.4952 -17.9974 0.0
32.9284 -17.4339 0.0
27.6058 -18.8324 0.0
20.6382 -21.1902 0.0
20.379 -21.3469 0.0
18.4651 -23.2051 0.0
-46.9594 -7.32865 0.0
-45.395 -6.48159 0.0
-43.3696 -4.89976 0.0
-43.3577 -4.85961 0.0
-43.3764 -4.47529 0.0
-48.6776 -2.10422 0.0
-51.5616 -3.04142 0.0
-51.8961 -3.87384 0.0
-45.1449 -19.1859 0.0
-45.262 -19.3738 0.0
-44.3102 -23.7544 0.0
-42.6067 -29.1566 0.0
-41.0632 -28.6722 0.0
-40.4693 -24.6586 0.0
-48.0308 -27.4629 0.0
-49.5772 -25.4125 0.0
-55.811 -25.971 0.0
-52.0943 -30.5055 0.0
-42.0925 36.2021 0.0
-41.8496 36.1048 0.0
-40.2096 38.509 0.0
-39.5462 44.6076 0.0
-40.3793 48.4519 0.0
-40.4892 48.4928 0.0
-41.1607 48.5296 0.0
-13.3334 43.073 0.0
-14.8321 40.527 0.0
-14.722 39.8674 0.0
-14.422 39.5223 0.0
-9.4875 39.0048 0.0
-8.18173 39.5944 0.0
-7.366 41.8924 0.0
-50.448 22.0126 0.0
-53.412 23.4789 0.0
-56.6601 18.3936 0.0
-56.7204 17.6355 0.0
-55.9236 16.6223 0.0
51.3169 13.7136 0.0
50.8178 16.0988 0.0
46.9902 17.5697 0.0
46.7213 16.1417 0.0
47.109 14.0221 0.0
47.8868 10.8956 0.0
51.6889 14.0123 0.0
52.0744 13.6636 0.0
55.4077 17.9984 0.0
50.4104 21.115 0.0
51.1898 16.3975 0.0
-39.5273 -23.8591 0.0
-40.0343 -24.9059 0.0
-40.6283 -28.9196 0.0
-37.9697 -29.8695 0.0
-35.0684 -27.2386 0.0
5.20752 -54.2351 0.0
7.00034 -51.8647 0.0
7.13865 -51.4904 0.0
4.11331 -42.8148 0.0
3.22211 -43.0543 0.0
37.2476 2.83931 0.0
36.7678 1.52198 0.0
38.1554 -4.57963 0.0
38.6808 -4.30537 0.0
39.9802 4.56788 0.0
38.7058 5.10715 0.0
21.2286 -14.476 0.0
18.6808 -15.8613 0.0
19.9311 -20.9783 0.0
20.1904 -20.8216 0.0
24.6767 -15.6258 0.0
22.3276 -14.5692 0.0
48.0865 10.4876 0.0
47.8908 8.3485 0.0
54.1127 9.33044 0.0
51.9021 12.9569 0.0
51.5167 13.3056 0.0
12.3014 35.537 0.0
13.7281 36.1738 0.0
14.8291 38.0568 0.0
14.2608 41.2967 0.0
11.4467 40.4913 0.0
7.47825 36.5971 0.0
27.1834 -34.7154 0.0
25.6443 -37.103 0.0
26.728 -37.9848 0.0
30.6197 -37.6686 0.0
33.1307 -34.835 0.0
0.909495 -11.0932 0.0
3.16336 -19.2993 0.0
4.58062 -17.9995 0.0
5.32535 -14.6247 0.0
-54.0816 14.1507 0.0
-55.4075 14.7924 0.0
-60.9698 10.5147 0.0
-58.383 9.9257 0.0
-53.9088 9.99119 0.0
-53.3635 10.6364 0.0
-26.2574 46.7447 0.0
-26.536 45.978 0.0
-26.271 45.5966 0.0
-24.7257 45.3606 0.0
-22.5304 45.209 0.0
-21.2099 46.5585 0.0
-19.3656 50.4915 0.0
-18.4047 55.6071 0.0
5.23069 -62.7564 0.0
5.69266 -58.992 0.0
4.2811 -57.5278 0.0
2.67773 -57.322 0.0
0.844898 -57.4993 0.0
1.02629 -61.5903 0.0
7.37416 -17.6388 0.0
13.1875 -16.6817 0.0
12.0542 -12.7122 0.0
11.5738 -11.9757 0.0
10.8028 -11.7928 0.0
-1.57861 27.2037 0.0
-1.40582 26.526 0.0
3.4049 25.7577 0.0
4.59904 27.5208 0.0
4.67786 28.885 0.0
4.58939 29.0483 0.0
3.68124 29.7661 0.0
3.31751 29.7575 0.0
0.0686583 29.5875 0.0
-0.308285 29.1865 0.0
36.8573 38.9258 0.0
36.6855 37.7626 0.0
43.0143 31.3311 0.0
44.3443 30.7975 0.0
44.1543 32.2067 0.0
40.6485 38.8994 0.0
38.2524 40.4215 0.0
29.0058 36.8244 0.0
33.3891 35.421 0.0
34.2848 35.1265 0.0
35.9605 37.8984 0.0
36.1322 39.0616 0.0
33.211 39.4444 0.0
12.5353 -12.5127 0.0
13.6686 -16.4822 0.0
14.4426 -17.1157 0.0
16.0692 -15.9982 0.0
18.0621 -11.377 0.0
18.7447 -8.90961 0.0
42.4206 -5.56076 0.0
42.977 -4.26457 0.0
42.7837 0.223692 0.0
42.5768 4.95925 0.0
40.2621 4.42146 0.0
38.9627 -4.45179 0.0
26.72 17.1862 0.0
26.2439 17.184 0.0
26.8152 10.2106 0.0
28.2981 10.8508 0.0
30.586 13.1977 0.0
24.9686 -45.006 0.0
23.8183 -45.4912 0.0
24.2479 -50.2621 0.0
29.6012 -49.5986 0.0
29.7198 -48.8372 0.0
29.6824 -48.5053 0.0
-12.3469 -29.249 0.0
-7.33469 -32.2943 0.0
-8.00775 -27.7121 0.0
-9.14478 -26.6137 0.0
-10.2766 -25.8796 0.0
-12.4017 -27.8756 0.0
-19.1335 30.0791 0.0
-21.133 25.5948 0.0
-20.9457 25.208 0.0
-19.1154 23.988 0.0
-15.7392 26.4752 0.0
-13.5755 32.1449 0.0
-18.2531 30.9706 0.0
51.4824 -23.6765 0.0
51.3481 -23.0321 0.0
41.5516 -22.4366 0.0
40.2118 -22.7466 0.0
38.6362 -23.8849 0.0
38.6544 -24.9201 0.0
51.2818 -24.0124 0.0
-54.7419 -4.88575 0.0
-53.9569 -5.26064 0.0
-52.6437 -3.4808 0.0
-52.3092 -2.64837 0.0
-54.5544 2.50309 0.0
-56.8751 3.19347 0.0
-58.5471 3.20659 0.0
-3.54584 0.108197 0.0
-4.73093 1.53816 0.0
-8.61664 -0.927711 0.0
-3.76713 -4.91344 0.0
-1.77255 -6.00333 0.0
-1.48619 -5.87613 0.0
46.8591 22.3206 0.0
47.8449 24.6595 0.0
47.0136 27.7674 0.0
45.6872 28.3029 0.0
41.5124 24.4264 0.0
41.2507 23.7589 0.0
41.6017 22.8889 0.0
-12.037 -29.8775 0.0
-12.1849 -30.315 0.0
-5.651 -38.8718 0.0
-3.89351 -39.8047 0.0
-3.14623 -37.9979 0.0
-3.13503 -35.3515 0.0
-7.02471 -32.9228 0.0
-31.441 9.84979 0.0
-31.3528 8.3131 0.0
-30.6477 7.54648 0.0
-25.8106 2.64706 0.0
-24.3427 3.60342 0.0
-23.526 4.74152 0.0
-28.9617 -40.8948 0.0
-32.4001 -41.3728 0.0
-31.7752 -47.418 0.0
-28.5331 -44.9015 0.0
-28.2129 -44.4333 0.0
-19.676 -2.19245 0.0
-15.9714 -2.06094 0.0
-17.5688 1.91975 0.0
-17.8713 2.32912 0.0
-18.8971 2.94189 0.0
-22.5413 4.45568 0.0
-22.752 4.23884 0.0
-23.5687 3.10074 0.0
-32.6607 0.260462 0.0
-33.7443 3.68983 0.0
-38.3596 5.46694 0.0
-39.895 5.40525 0.0
-40.6847 4.647 0.0
-40.1983 1.80123 0.0
-22.4578 -32.1715 0.0
-21.2812 -29.1056 0.0
-21.234 -25.5525 0.0
-23.3868 -23.8822 0.0
-25.1096 -24.1024 0.0
-27.4835 -27.0624 0.0
18.2023 46.8356 0.0
19.9201 49.9075 0.0
14.0407 49.0388 0.0
13.2468 47.5167 0.0
15.9653 44.5639 0.0
16.6827 44.725 0.0
-17.5717 -25.2226 0.0
[...]
<CellData Scalars="cell variable 4" Vectors="cell vector">
<DataArray type="Float64" NumberOfComponents="3" Name="cell vector" format="ascii">
0 0 0
0 0 0
0 0 0
0 0 0
0 0 0
0 0 0
0 0 0
0 0 0
0 0 0
0 0 0
0 0 0
0 0 0
0 0 0
0 0 0
0 0 0
0 0 0
0 0 0
0 0 0
0 0 0
0 0 0
0 0 0
0 0 0
0 0 0
0 0 0
0 0 0
0 0 0
0 0 0
0 0 0
0 0 0
0 0 0
0 0 0
0 0 0
0 0 0
0 0 0
0 0 0
0 0 0
0 0 0
0 0 0
0 0 0
0 0 0
0 0 0
0 0 0
0 0 0
0 0 0
0 0 0
0 0 0
0 0 0
0 0 0
0 0 0
0 0 0
0 0 0
0 0 0
0 0 0
0 0 0
0 0 0
0 0 0
0 0 0
0 0 0
0 0 0
0 0 0
0 0 0
0 0 0
0 0 0
0 0 0
0 0 0
0 0 0
0 0 0
0 0 0
0 0 0
0 0 0
0 0 0
0 0 0
0 0 0
0 0 0
0 0 0
0 0 0
0 0 0
0 0 0
0 0 0
0 0 0
0 0 0
0 0 0
0 0 0
0 0 0
0 0 0
0 0 0
0 0 0
0 0 0
0 0 0
0 0 0
0 0 0
0 0 0
0 0 0
0 0 0
0 0 0
0 0 0
0 0 0
0 0 0
0 0 0
0 0 0
0 0 0
0 0 0
0 0 0
0 0 0
0 0 0
0 0 0
0 0 0
0 0 0
0 0 0
0 0 0
0 0 0
0 0 0
0 0 0
0 0 0
0 0 0
0 0 0
0 0 0
0 0 0
0 0 0
0 0 0
0 0 0
0 0 0
0 0 0
0 0 0
0 0 0
0 0 0
0 0 0
0 0 0
0 0 0
0 0 0
0 0 0
0 0 0
0 0 0
0 0 0
0 0 0
0 0 0
0 0 0
0 0 0
0 0 0
0 0 0
0 0 0
0 0 0
0 0 0
0 0 0
0 0 0
0 0 0
0 0 0
0 0 0
0 0 0
0 0 0
0 0 0
0 0 0
0 0 0
0 0 0
0 0 0
0 0 0
0 0 0
0 0 0
0 0 0
0 0 0
0 0 0
0 0 0
0 0 0
0 0 0
0 0 0
0 0 0
0 0 0
0 0 0
0 0 0
0 0 0
0 0 0
0 0 0
0 0 0
0 0 0
0 0 0
0 0 0
0 0 0
0 0 0
0 0 0
0 0 0
0 0 0
0 0 0
0 0 0
0 0 0
0 0 0
0 0 0
0 0 0
0 0 0
0 0 0
0 0 0
0 0 0
0 0 0
0 0 0
0 0 0
0 0 0
0 0 0
0 0 0
0 0 0
0 0 0
0 0 0
0 0 0
0 0 0
0 0 0
0 0 0
0 0 0
0 0 0
0 0 0
0 0 0
0 0 0
0 0 0
0 0 0
0 0 0
0 0 0
0 0 0
0 0 0
0 0 0
0 0 0
0 0 0
0 0 0
0 0 0
0 0 0
0 0 0
0 0 0
0 0 0
0 0 0
0 0 0
0 0 0
0 0 0
0 0 0
0 0 0
0 0 0
0 0 0
0 0 0
0 0 0
0 0 0
0 0 0
0 0 0
0 0 0
0 0 0
0 0 0
0 0 0
0 0 0
0 0 0
0 0 0
0 0 0
0 0 0
0 0 0
0 0 0
0 0 0
0 0 0
0 0 0
0 0 0
0 0 0
0 0 0
0 0 0
0 0 0
0 0 0
0 0 0
0 0 0
0 0 0
0 0 0
0 0 0
0 0 0
0 0 0
0 0 0
0 0 0
0 0 0
0 0 0
0 0 0
0 0 0
0 0 0
0 0 0
0 0 0
0 0 0
0 0 0
0 0 0
0 0 0
0 0 0
0 0 0
0 0 0
0 0 0
0 0 0
0 0 0
0 0 0
0 0 0
0 0 0
0 0 0
0 0 0
0 0 0
0 0 0
0 0 0
0 0 0
0 0 0
0 0 0
0 0 0
0 0 0
0 0 0
0 0 0
0 0 0
0 0 0
0 0 0
0 0 0
0 0 0
0 0 0
0 0 0
0 0 0
0 0 0
0 0 0
0 0 0
0 0 0
0 0 0
0 0 0
0 0 0
0 0 0
0 0 0
0 0 0
0 0 0
0 0 0
0 0 0
0 0 0
0 0 0
0 0 0
0 0 0
0 0 0
0 0 0
0 0 0
0 0 0
0 0 0
0 0 0
0 0 0
0 0 0
0 0 0
0 0 0
0 0 0
0 0 0
0 0 0
0 0 0
0 0 0
0 0 0
0 0 0
0 0 0
0 0 0
0 0 0
0 0 0
0 0 0
0 0 0
0 0 0
0 0 0
0 0 0
0 0 0
0 0 0
0 0 0
0 0 0
0 0 0
0 0 0
0 0 0
0 0 0
0 0 0
0 0 0
0 0 0
0 0 0
0 0 0
0 0 0
0 0 0
0 0 0
0 0 0
0 0 0
0 0 0
0 0 0
0 0 0
0 0 0
0 0 0
0 0 0
0 0 0
0 0 0
0 0 0
0 0 0
0 0 0
0 0 0
0 0 0
0 0 0
0 0 0
0 0 0
0 0 0
0 0 0
0 0 0
0 0 0
0 0 0
0 0 0
0 0 0
0 0 0
0 0 0
0 0 0
0 0 0
0 0 0
</DataArray>
<DataArray type="Float64" Name="cell vector length" format="ascii">
0 0 0 0 0 0 0 0 0 0 0 0 0 0 0 0 0 0 0 0 0 0 0 0 0 0 0 0 0 0 0 0 0 0 0 0 0 0 0 0 0 0 0 0 0 0 0 0 0 0 0 0 0 0 0 0 0 0 0 0 0 0 0 0 0 0 0 0 0 0 0 0 0 0 0 0 0 0 0 0 0 0 0 0 0 0 0 0 0 0 0 0 0 0 0 0 0 0 0 0 0 0 0 0 0 0 0 0 0 0 0 0 0 0 0 0 0 0 0 0 0 0 0 0 0 0 0 0 0 0 0 0 0 0 0 0 0 0 0 0 0 0 0 0 0 0 0 0 0 0 0 0 0 0 0 0 0 0 0 0 0 0 0 0 0 0 0 0 0 0 0 0 0 0 0 0 0 0 0 0 0 0 0 0 0 0 0 0 0 0 0 0 0 0 0 0 0 0 0 0 0 0 0 0 0 0 0 0 0 0 0 0 0 0 0 0 0 0 0 0 0 0 0 0 0 0 0 0 0 0 0 0 0 0 0 0 0 0 0 0 0 0 0 0 0 0 0 0 0 0 0 0 0 0 0 0 0 0 0 0 0 0 0 0 0 0 0 0 0 0 0 0 0 0 0 0 0 0 0 0 0 0 0 0 0 0 0 0 0 0 0 0 0 0 0 0 0 0 0 0 0 0 0 0 0 0 0 0 0 0 0 0 0 0 0 0 0 0 0 0 0 0 0 0 0 0 0 0 0 0 0 0 0 0 0 0 0 0 0 0 0 0 0 0 0 0 0 0 0 0 0 0 0 0 0 0 0 0 0 0 0 0 0 0 0 0 0 0 0 0 0 0 0 0 0 0 0 0 0 0 0 0 0 0 0 0 0 0 0 0 0 0 0 0 0 
</DataArray>
<DataArray type="Float64" Name="cell variable 4" format="ascii">
1.11547 1.06245 0.789941 1.07467 0.631062 0.94865 1.11547 0.94865 0.763876 0.8063 1.14226 1.04461 0.790107 1.04461 0.912892 0.919422 1.07467 1.10185 0.789941 0.94865 0.673042 0.99432 0.99432 1.00681 1.07467 0.626025 1.00681 1.14226 0.99432 0.912892 0.980966 0.99432 0.980966 1.04461 1.11547 0.919422 0.919422 0.631062 0.673042 0.763876 0.8063 0.848855 0.848855 0.919422 0.789941 1.10185 1.11547 0.848855 0.980966 0.657465 1.11547 0.8063 0.763876 0.789941 1.11547 1.07467 1.06245 1.06245 1.11547 0.912892 1.10185 0.708918 1.04461 1.07467 0.912892 0.542818 1.12037 0.848855 1.04461 1.00681 0.631062 1.12037 1.00681 0.90618 0.626025 1.04461 1.14226 0.94865 0.90618 1.11547 0.573608 0.919422 1.11547 0.848855 1.11547 0.912892 1.04461 1.10185 1.14226 1.07467 0.790107 0.708918 0.99432 0.657465 0.980966 0.980966 0.763876 0.919422 1.12037 1.11547 1.04461 1.04461 0.919422 0.94865 0.919422 0.919422 0.99432 1.12037 0.631062 0.912892 0.763876 0.790107 0.763876 0.673042 0.912892 1.14226 0.789941 0.657465 1.11547 0.789941 0.626025 1.07467 1.00681 0.94865 0.673042 0.657465 0.789941 1.06245 0.99432 1.04461 0.66381 1.11547 1.00681 1.07467 1.06245 1.06245 0.631062 0.789941 1.04461 0.919422 0.790107 1.00681 1.12037 0.763876 0.542818 0.980966 0.657465 0.99432 0.980966 0.848855 1.04461 0.980966 0.919422 0.919422 1.00681 0.8063 0.912892 1.12037 0.542818 1.06245 1.07467 0.94865 1.04461 1.06245 1.00681 0.763876 0.657465 1.11547 1.11547 1.10185 1.10185 0.919422 1.12037 0.919422 0.848855 0.94865 1.00681 1.00681 0.66381 0.919422 1.12037 1.00681 1.00681 0.657465 1.00681 0.980966 0.763876 1.11547 0.673042 1.06245 1.07467 0.912892 1.07467 0.631062 0.980966 0.789941 0.94865 0.763876 0.8063 0.919422 0.790107 0.90618 0.919422 0.912892 1.12037 0.912892 0.763876 0.90618 0.763876 0.980966 1.07467 1.10185 0.631062 1.06245 0.980966 1.10185 0.980966 0.673042 0.573608 1.07467 1.04461 1.04461 0.790107 1.10185 0.657465 0.8063 0.573608 1.10185 0.912892 0.763876 1.07467 0.90618 0.848855 1.10185 1.04461 0.919422 1.10185 0.912892 0.980966 0.631062 0.99432 0.94865 0.919422 1.11547 0.919422 1.00681 0.90618 0.736473 0.919422 1.07467 1.10185 0.848855 0.626025 1.14226 0.912892 0.763876 1.10185 0.99432 1.06245 1.14226 1.11547 0.99432 1.06245 0.919422 0.626025 1.14226 1.14226 0.912892 0.912892 0.919422 1.11547 0.789941 0.919422 0.542818 1.14226 1.11547 0.94865 0.631062 0.94865 1.11547 0.626025 1.06245 0.8063 0.912892 0.789941 0.912892 0.631062 1.14226 1.10185 1.00681 0.912892 1.14226 0.94865 0.90618 0.790107 1.07467 0.66381 1.12037 1.06245 0.848855 0.912892 0.657465 1.12037 1.06245 0.912892 0.848855 0.657465 0.673042 0.94865 0.90618 0.90618 0.919422 1.12037 1.07467 0.912892 0.848855 1.10185 1.11547 0.980966 0.8063 0.631062 0.789941 0.789941 0.848855 0.763876 0.848855 0.789941 1.14226 1.07467 0.8063 1.04461 1.14226 0.912892 1.11547 0.790107 0.980966 0.90618 0.980966 1.04461 0.657465 0.90618 0.919422 1.00681 0.94865 0.99432 1.06245 0.8063 0.848855 0.99432 1.12037 0.657465 1.12037 0.919422 0.657465 1.00681 0.789941 1.00681 0.8063 0.8063 1.14226 1.12037 0.708918 0.980966 0.919422 0.919422 0.708918 0.848855 1.06245 0.789941 1.11547 0.980966 0.789941 1.00681 1.10185 0.90618 1.04461 1.12037 0.919422 1.10185 0.626025 0.66381 1.11547 1.06245 1.00681 0.631062 0.919422 0.626025 0.90618 1.14226 0.542818 0.626025 1.04461 0.90618 0.657465 1.04461 
</DataArray>
<DataArray type="Float64" Name="cell variable 5" format="ascii">
0.00797274 0.00878122 0.0157727 0.00858434 0.0244954 0.0109898 0.00797274 0.0109898 0.016849 0.0151488 0.00760594 0.00908091 0.0157662 0.00908091 0.0118572 0.0116913 0.00858434 0.00816951 0.0157727 0.0109898 0.021599 0.0100133 0.0100133 0.00976872 0.00858434 0.0248813 0.00976872 0.00760594 0.0100133 0.0118572 0.0102849 0.0100133 0.0102849 0.00908091 0.00797274 0.0116913 0.0116913 0.0244954 0.021599 0.016849 0.0151488 0.0136882 0.0136882 0.0116913 0.0157727 0.00816951 0.00797274 0.0136882 0.0102849 0.0226112 0.00797274 0.0151488 0.016849 0.0157727 0.00797274 0.00858434 0.00878122 0.00878122 0.00797274 0.0118572 0.00816951 0.0195097 0.00908091 0.00858434 0.0118572 0.0328244 0.00790366 0.0136882 0.00908091 0.00976872 0.0244954 0.00790366 0.00976872 0.0120314 0.0248813 0.00908091 0.00760594 0.0109898 0.0120314 0.00797274 0.0294962 0.0116913 0.00797274 0.0136882 0.00797274 0.0118572 0.00908091 0.00816951 0.00760594 0.00858434 0.0157662 0.0195097 0.0100133 0.0226112 0.0102849 0.0102849 0.016849 0.0116913 0.00790366 0.00797274 0.00908091 0.00908091 0.0116913 0.0109898 0.0116913 0.0116913 0.0100133 0.00790366 0.0244954 0.0118572 0.016849 0.0157662 0.016849 0.021599 0.0118572 0.00760594 0.0157727 0.0226112 0.00797274 0.0157727 0.0248813 0.00858434 0.00976872 0.0109898 0.021599 0.0226112 0.0157727 0.00878122 0.0100133 0.00908091 0.0221905 0.00797274 0.00976872 0.00858434 0.00878122 0.00878122 0.0244954 0.0157727 0.00908091 0.0116913 0.0157662 0.00976872 0.00790366 0.016849 0.0328244 0.0102849 0.0226112 0.0100133 0.0102849 0.0136882 0.00908091 0.0102849 0.0116913 0.0116913 0.00976872 0.0151488 0.0118572 0.00790366 0.0328244 0.00878122 0.00858434 0.0109898 0.00908091 0.00878122 0.00976872 0.016849 0.0226112 0.00797274 0.00797274 0.00816951 0.00816951 0.0116913 0.00790366 0.0116913 0.0136882 0.0109898 0.00976872 0.00976872 0.0221905 0.0116913 0.00790366 0.00976872 0.00976872 0.0226112 0.00976872 0.0102849 0.016849 0.00797274 0.021599 0.00878122 0.00858434 0.0118572 0.00858434 0.0244954 0.0102849 0.0157727 0.0109898 0.016849 0.0151488 0.0116913 0.0157662 0.0120314 0.0116913 0.0118572 0.00790366 0.0118572 0.016849 0.0120314 0.016849 0.0102849 0.00858434 0.00816951 0.0244954 0.00878122 0.0102849 0.00816951 0.0102849 0.021599 0.0294962 0.00858434 0.00908091 0.00908091 0.0157662 0.00816951 0.0226112 0.0151488 0.0294962 0.00816951 0.0118572 0.016849 0.00858434 0.0120314 0.0136882 0.00816951 0.00908091 0.0116913 0.00816951 0.0118572 0.0102849 0.0244954 0.0100133 0.0109898 0.0116913 0.00797274 0.0116913 0.00976872 0.0120314 0.0181031 0.0116913 0.00858434 0.00816951 0.0136882 0.0248813 0.00760594 0.0118572 0.016849 0.00816951 0.0100133 0.00878122 0.00760594 0.00797274 0.0100133 0.00878122 0.0116913 0.0248813 0.00760594 0.00760594 0.0118572 0.0118572 0.0116913 0.00797274 0.0157727 0.0116913 0.0328244 0.00760594 0.00797274 0.0109898 0.0244954 0.0109898 0.00797274 0.0248813 0.00878122 0.0151488 0.0118572 0.0157727 0.0118572 0.0244954 0.00760594 0.00816951 0.00976872 0.0118572 0.00760594 0.0109898 0.0120314 0.0157662 0.00858434 0.0221905 0.00790366 0.00878122 0.0136882 0.0118572 0.0226112 0.00790366 0.00878122 0.0118572 0.0136882 0.0226112 0.021599 0.0109898 0.0120314 0.0120314 0.0116913 0.00790366 0.00858434 0.0118572 0.0136882 0.00816951 0.00797274 0.0102849 0.0151488 0.0244954 0.0157727 0.0157727 0.0136882 0.016849 0.0136882 0.0157727 0.00760594 0.00858434 0.0151488 0.00908091 0.00760594 0.0118572 0.00797274 0.0157662 0.0102849 0.0120314 0.0102849 0.00908091 0.0226112 0.0120314 0.0116913 0.00976872 0.0109898 0.0100133 0.00878122 0.0151488 0.0136882 0.0100133 0.00790366 0.0226112 0.00790366 0.0116913 0.0226112 0.00976872 0.0157727 0.00976872 0.0151488 0.0151488 0.00760594 0.00790366 0.0195097 0.0102849 0.0116913 0.0116913 0.0195097 0.0136882 0.00878122 0.0157727 0.00797274 0.0102849 0.0157727 0.00976872 0.00816951 0.0120314 0.00908091 0.00790366 0.0116913 0.00816951 0.0248813 0.0221905 0.00797274 0.00878122 0.00976872 0.0244954 0.0116913 0.0248813 0.0120314 0.00760594 0.0328244 0.0248813 0.00908091 0.0120314 0.0226112 0.00908091 
</DataArray>
<DataArray type="Float64" Name="cell variable 6" format="ascii">
4.32387e-06 5.74138e-06 3.156e-05 5.3719e-06 0.000110922 1.10661e-05 4.32387e-06 1.10661e-05 3.81646e-05 2.80904e-05 3.76475e-06 6.33494e-06 3.15261e-05 6.33494e-06 1.38076e-05 1.32528e-05 5.3719e-06 4.64493e-06 3.156e-05 1.10661e-05 7.76673e-05 8.43313e-06 8.43313e-06 7.8448e-06 5.3719e-06 0.000115922 7.8448e-06 3.76475e-06 8.43313e-06 1.38076e-05 9.11938e-06 8.43313e-06 9.11938e-06 6.33494e-06 4.32387e-06 1.32528e-05 1.32528e-05 0.000110922 7.76673e-05 3.81646e-05 2.80904e-05 2.09522e-05 2.09522e-05 1.32528e-05 3.156e-05 4.64493e-06 4.32387e-06 2.09522e-05 9.11938e-06 8.84138e-05 4.32387e-06 2.80904e-05 3.81646e-05 3.156e-05 4.32387e-06 5.3719e-06 5.74138e-06 5.74138e-06 4.32387e-06 1.38076e-05 4.64493e-06 5.81379e-05 6.33494e-06 5.3719e-06 1.38076e-05 0.000251962 4.21468e-06 2.09522e-05 6.33494e-06 7.8448e-06 0.000110922 4.21468e-06 7.8448e-06 1.4406e-05 0.000115922 6.33494e-06 3.76475e-06 1.10661e-05 1.4406e-05 4.32387e-06 0.000187165 1.32528e-05 4.32387e-06 2.09522e-05 4.32387e-06 1.38076e-05 6.33494e-06 4.64493e-06 3.76475e-06 5.3719e-06 3.15261e-05 5.81379e-05 8.43313e-06 8.84138e-05 9.11938e-06 9.11938e-06 3.81646e-05 1.32528e-05 4.21468e-06 4.32387e-06 6.33494e-06 6.33494e-06 1.32528e-05 1.10661e-05 1.32528e-05 1.32528e-05 8.43313e-06 4.21468e-06 0.000110922 1.38076e-05 3.81646e-05 3.15261e-05 3.81646e-05 7.76673e-05 1.38076e-05 3.76475e-06 3.156e-05 8.84138e-05 4.32387e-06 3.156e-05 0.000115922 5.3719e-06 7.8448e-06 1.10661e-05 7.76673e-05 8.84138e-05 3.156e-05 5.74138e-06 8.43313e-06 6.33494e-06 8.3838e-05 4.32387e-06 7.8448e-06 5.3719e-06 5.74138e-06 5.74138e-06 0.000110922 3.156e-05 6.33494e-06 1.32528e-05 3.15261e-05 7.8448e-06 4.21468e-06 3.81646e-05 0.000251962 9.11938e-06 8.84138e-05 8.43313e-06 9.11938e-06 2.09522e-05 6.33494e-06 9.11938e-06 1.32528e-05 1.32528e-05 7.8448e-06 2.80904e-05 1.38076e-05 4.21468e-06 0.000251962 5.74138e-06 5.3719e-06 1.10661e-05 6.33494e-06 5.74138e-06 7.8448e-06 3.81646e-05 8.84138e-05 4.32387e-06 4.32387e-06 4.64493e-06 4.64493e-06 1.32528e-05 4.21468e-06 1.32528e-05 2.09522e-05 1.10661e-05 7.8448e-06 7.8448e-06 8.3838e-05 1.32528e-05 4.21468e-06 7.8448e-06 7.8448e-06 8.84138e-05 7.8448e-06 9.11938e-06 3.81646e-05 4.32387e-06 7.76673e-05 5.74138e-06 5.3719e-06 1.38076e-05 5.3719e-06 0.000110922 9.11938e-06 3.156e-05 1.10661e-05 3.81646e-05 2.80904e-05 1.32528e-05 3.15261e-05 1.4406e-05 1.32528e-05 1.38076e-05 4.21468e-06 1.38076e-05 3.81646e-05 1.4406e-05 3.81646e-05 9.11938e-06 5.3719e-06 4.64493e-06 0.000110922 5.74138e-06 9.11938e-06 4.64493e-06 9.11938e-06 7.76673e-05 0.000187165 5.3719e-06 6.33494e-06 6.33494e-06 3.15261e-05 4.64493e-06 8.84138e-05 2.80904e-05 0.000187165 4.64493e-06 1.38076e-05 3.81646e-05 5.3719e-06 1.4406e-05 2.09522e-05 4.64493e-06 6.33494e-06 1.32528e-05 4.64493e-06 1.38076e-05 9.11938e-06 0.000110922 8.43313e-06 1.10661e-05 1.32528e-05 4.32387e-06 1.32528e-05 7.8448e-06 1.4406e-05 4.69278e-05 1.32528e-05 5.3719e-06 4.64493e-06 2.09522e-05 0.000115922 3.76475e-06 1.38076e-05 3.81646e-05 4.64493e-06 8.43313e-06 5.74138e-06 3.76475e-06 4.32387e-06 8.43313e-06 5.74138e-06 1.32528e-05 0.000115922 3.76475e-06 3.76475e-06 1.38076e-05 1.38076e-05 1.32528e-05 4.32387e-06 3.156e-05 1.32528e-05 0.000251962 3.76475e-06 4.32387e-06 1.10661e-05 0.000110922 1.10661e-05 4.32387e-06 0.000115922 5.74138e-06 2.80904e-05 1.38076e-05 3.156e-05 1.38076e-05 0.000110922 3.76475e-06 4.64493e-06 7.8448e-06 1.38076e-05 3.76475e-06 1.10661e-05 1.4406e-05 3.15261e-05 5.3719e-06 8.3838e-05 4.21468e-06 5.74138e-06 2.09522e-05 1.38076e-05 8.84138e-05 4.21468e-06 5.74138e-06 1.38076e-05 2.09522e-05 8.84138e-05 7.76673e-05 1.10661e-05 1.4406e-05 1.4406e-05 1.32528e-05 4.21468e-06 5.3719e-06 1.38076e-05 2.09522e-05 4.64493e-06 4.32387e-06 9.11938e-06 2.80904e-05 0.000110922 3.156e-05 3.156e-05 2.09522e-05 3.81646e-05 2.09522e-05 3.156e-05 3.76475e-06 5.3719e-06 2.80904e-05 6.33494e-06 3.76475e-06 1.38076e-05 4.32387e-06 3.15261e-05 9.11938e-06 1.4406e-05 9.11938e-06 6.33494e-06 8.84138e-05 1.4406e-05 1.32528e-05 7.8448e-06 1.10661e-05 8.43313e-06 5.74138e-06 2.80904e-05 2.09522e-05 8.43313e-06 4.21468e-06 8.84138e-05 4.21468e-06 1.32528e-05 8.84138e-05 7.8448e-06 3.156e-05 7.8448e-06 2.80904e-05 2.80904e-05 3.76475e-06 4.21468e-06 5.81379e-05 9.11938e-06 1.32528e-05 1.32528e-05 5.81379e-05 2.09522e-05 5.74138e-06 3.156e-05 4.32387e-06 9.11938e-06 3.156e-05 7.8448e-06 4.64493e-06 1.4406e-05 6.33494e-06 4.21468e-06 1.32528e-05 4.64493e-06 0.000115922 8.3838e-05 4.32387e-06 5.74138e-06 7.8448e-06 0.000110922 1.32528e-05 0.000115922 1.4406e-05 3.76475e-06 0.000251962 0.000115922 6.33494e-06 1.4406e-05 8.84138e-05 6.33494e-06 
</DataArray>
<DataArray type="Float64" Name="cell variable 7" format="ascii">
0.0788486 0.0886341 0.142859 0.0863829 0.184332 0.109939 0.0788486 0.109939 0.148901 0.139181 0.0738515 0.091923 0.142821 0.091923 0.116913 0.115625 0.0863829 0.0813708 0.142859 0.109939 0.172124 0.10127 0.10127 0.0989326 0.0863829 0.185875 0.0989326 0.0738515 0.10127 0.116913 0.103782 0.10127 0.103782 0.091923 0.0788486 0.115625 0.115625 0.184332 0.172124 0.148901 0.139181 0.129973 0.129973 0.115625 0.142859 0.0813708 0.0788486 0.129973 0.103782 0.176526 0.0788486 0.139181 0.148901 0.142859 0.0788486 0.0863829 0.0886341 0.0886341 0.0788486 0.116913 0.0813708 0.162493 0.091923 0.0863829 0.116913 0.214434 0.0779382 0.129973 0.091923 0.0989326 0.184332 0.0779382 0.0989326 0.118245 0.185875 0.091923 0.0738515 0.109939 0.118245 0.0788486 0.203114 0.115625 0.0788486 0.129973 0.0788486 0.116913 0.091923 0.0813708 0.0738515 0.0863829 0.142821 0.162493 0.10127 0.176526 0.103782 0.103782 0.148901 0.115625 0.0779382 0.0788486 0.091923 0.091923 0.115625 0.109939 0.115625 0.115625 0.10127 0.0779382 0.184332 0.116913 0.148901 0.142821 0.148901 0.172124 0.116913 0.0738515 0.142859 0.176526 0.0788486 0.142859 0.185875 0.0863829 0.0989326 0.109939 0.172124 0.176526 0.142859 0.0886341 0.10127 0.091923 0.174715 0.0788486 0.0989326 0.0863829 0.0886341 0.0886341 0.184332 0.142859 0.091923 0.115625 0.142821 0.0989326 0.0779382 0.148901 0.214434 0.103782 0.176526 0.10127 0.103782 0.129973 0.091923 0.103782 0.115625 0.115625 0.0989326 0.139181 0.116913 0.0779382 0.214434 0.0886341 0.0863829 0.109939 0.091923 0.0886341 0.0989326 0.148901 0.176526 0.0788486 0.0788486 0.0813708 0.0813708 0.115625 0.0779382 0.115625 0.129973 0.109939 0.0989326 0.0989326 0.174715 0.115625 0.0779382 0.0989326 0.0989326 0.176526 0.0989326 0.103782 0.148901 0.0788486 0.172124 0.0886341 0.0863829 0.116913 0.0863829 0.184332 0.103782 0.142859 0.109939 0.148901 0.139181 0.115625 0.142821 0.118245 0.115625 0.116913 0.0779382 0.116913 0.148901 0.118245 0.148901 0.103782 0.0863829 0.0813708 0.184332 0.0886341 0.103782 0.0813708 0.103782 0.172124 0.203114 0.0863829 0.091923 0.091923 0.142821 0.0813708 0.176526 0.139181 0.203114 0.0813708 0.116913 0.148901 0.0863829 0.118245 0.129973 0.0813708 0.091923 0.115625 0.0813708 0.116913 0.103782 0.184332 0.10127 0.109939 0.115625 0.0788486 0.115625 0.0989326 0.118245 0.15552 0.115625 0.0863829 0.0813708 0.129973 0.185875 0.0738515 0.116913 0.148901 0.0813708 0.10127 0.0886341 0.0738515 0.0788486 0.10127 0.0886341 0.115625 0.185875 0.0738515 0.0738515 0.116913 0.116913 0.115625 0.0788486 0.142859 0.115625 0.214434 0.0738515 0.0788486 0.109939 0.184332 0.109939 0.0788486 0.185875 0.0886341 0.139181 0.116913 0.142859 0.116913 0.184332 0.0738515 0.0813708 0.0989326 0.116913 0.0738515 0.109939 0.118245 0.142821 0.0863829 0.174715 0.0779382 0.0886341 0.129973 0.116913 0.176526 0.0779382 0.0886341 0.116913 0.129973 0.176526 0.172124 0.109939 0.118245 0.118245 0.115625 0.0779382 0.0863829 0.116913 0.129973 0.0813708 0.0788486 0.103782 0.139181 0.184332 0.142859 0.142859 0.129973 0.148901 0.129973 0.142859 0.0738515 0.0863829 0.139181 0.091923 0.0738515 0.116913 0.0788486 0.142821 0.103782 0.118245 0.103782 0.091923 0.176526 0.118245 0.115625 0.0989326 0.109939 0.10127 0.0886341 0.139181 0.129973 0.10127 0.0779382 0.176526 0.0779382 0.115625 0.176526 0.0989326 0.142859 0.0989326 0.139181 0.139181 0.0738515 0.0779382 0.162493 0.103782 0.115625 0.115625 0.162493 0.129973 0.0886341 0.142859 0.0788486 0.103782 0.142859 0.0989326 0.0813708 0.118245 0.091923 0.0779382 0.115625 0.0813708 0.185875 0.174715 0.0788486 0.0886341 0.0989326 0.184332 0.115625 0.185875 0.118245 0.0738515 0.214434 0.185875 0.091923 0.118245 0.176526 0.091923 
</DataArray>
<DataArray type="Float64" Name="cell variable 8" format="ascii">