<VTKFile type="UnstructuredGrid" version="0.1">
<UnstructuredGrid>
<Piece  NumberOfPoints="    2497" NumberOfCells="     418">
<Points>
<DataArray type="Float64" NumberOfComponents="3" format="ascii">
24.9641 -23.5659 0.0
24.2991 -23.9531 0.0
28.586 -27.3434 0.0
29.5988 -26.0476 0.0
29.6564 -21.7581 0.0
34.217 -36.827 0.0
34.1251 -36.2623 0.0
28.5515 -35.8578 0.0
27.8493 -36.4304 0.0
25.2546 -41.1342 0.0
24.9339 -41.753 0.0
-21.3103 49.5439 0.0
-24.0408 49.7908 0.0
-25.523 49.6444 0.0
-26.9542 48.5607 0.0
-24.4167 43.9867 0.0
-21.7818 44.2798 0.0
0.166736 12.488 0.0
-1.30626 13.9199 0.0
-8.71313 8.37964 0.0
-8.18838 6.69071 0.0
-8.0003 6.42204 0.0
42.7073 -6.64043 0.0
43.7533 -5.89863 0.0
41.7844 -1.07158 0.0
39.4622 -3.69391 0.0
38.1021 -5.28526 0.0
39.1989 -7.51797 0.0
46.9259 -0.317071 0.0
45.667 -5.50917 0.0
49.6758 -8.8495 0.0
52.102 -5.34153 0.0
50.2043 -3.45475 0.0
50.1943 32.6461 0.0
50.2992 33.0505 0.0
46.4369 37.1932 0.0
45.1303 37.1019 0.0
44.3098 34.2088 0.0
45.099 32.9045 0.0
48.4633 31.3645 0.0
10.5078 -15.2732 0.0
14.1778 -9.9066 0.0
13.1031 -8.09905 0.0
6.82765 -10.3528 0.0
9.30367 -13.9214 0.0
-24.3132 -49.9607 0.0
-22.3372 -52.7662 0.0
-21.2982 -53.8981 0.0
-17.8722 -49.6751 0.0
-21.2862 -46.433 0.0
-43.2684 35.7147 0.0
-43.2508 35.2362 0.0
-42.2897 34.5726 0.0
-37.8731 32.1952 0.0
-37.1777 32.5766 0.0
-33.9995 36.4683 0.0
-44.7726 -9.95328 0.0
-42.3729 -10.4136 0.0
-36.7847 -5.67409 0.0
-36.9285 -5.47791 0.0
-45.3594 -7.57355 0.0
-28.945 -12.095 0.0
-34.6716 -10.1238 0.0
-35.5268 -11.1989 0.0
-35.203 -15.7343 0.0
-34.2714 -16.426 0.0
-32.1828 -17.2417 0.0
-32.5292 47.7546 0.0
-33.6509 50.9186 0.0
-40.065 47.6591 0.0
-39.1928 45.281 0.0
-36.1268 45.8345 0.0
-33.7048 46.428 0.0
-5.87932 -4.94403 0.0
-6.3069 -4.79284 0.0
-7.95264 -5.17915 0.0
-9.11638 -9.84372 0.0
-5.51708 -11.3421 0.0
-4.35427 -10.5213 0.0
54.8446 7.74473 0.0
54.4712 4.06455 0.0
60.0727 4.48354 0.0
60.6196 8.59221 0.0
59.9642 9.1024 0.0
56.0764 8.76613 0.0
-51.2095 -20.2576 0.0
-49.5663 -22.9447 0.0
-48.2857 -22.9445 0.0
-44.0572 -18.7563 0.0
-45.1066 -16.4626 0.0
-45.4119 -15.8936 0.0
-13.6084 34.4071 0.0
-13.2646 36.886 0.0
-14.9242 38.3421 0.0
-15.8087 38.9407 0.0
-17.4518 38.9825 0.0
-17.9967 38.9262 0.0
-19.7146 37.4363 0.0
-20.8743 33.8535 0.0
49.4787 5.29991 0.0
49.3902 12.2371 0.0
46.7488 11.8123 0.0
45.7622 9.1052 0.0
25.3844 -9.87069 0.0
29.3632 -9.29178 0.0
31.2402 -5.60095 0.0
28.8541 -2.91772 0.0
28.3736 -2.81954 0.0
23.9553 32.0721 0.0
27.1194 33.8728 0.0
25.7483 37.0648 0.0
23.5146 37.745 0.0
18.896 37.4116 0.0
50.6056 -3.11909 0.0
52.5033 -5.00587 0.0
53.3204 -4.65751 0.0
53.541 -4.36797 0.0
54.5457 -1.24081 0.0
53.3408 1.92693 0.0
51.9487 2.11112 0.0
-14.3735 10.999 0.0
-12.8654 11.0408 0.0
-9.36996 16.9975 0.0
-9.56672 17.3903 0.0
-11.0286 17.701 0.0
-13.1523 17.7656 0.0
-15.9822 13.5211 0.0
-16.0123 12.0542 0.0
19.9246 22.7831 0.0
21.0969 21.4851 0.0
26.5918 25.4087 0.0
26.3351 26.1914 0.0
22.8391 27.7243 0.0
25.1032 14.8295 0.0
27.7752 13.7618 0.0
30.3434 15.5043 0.0
30.7769 19.229 0.0
30.6299 20.0466 0.0
29.1627 20.8775 0.0
28.5055 20.6268 0.0
-38.0688 31.7607 0.0
-42.4854 34.138 0.0
-41.5804 27.2794 0.0
-40.0356 26.3615 0.0
-30.9265 14.3774 0.0
-33.071 13.798 0.0
-33.7438 11.1203 0.0
-32.1856 9.22645 0.0
-26.5306 9.30572 0.0
-28.3054 21.3655 0.0
-29.286 22.8503 0.0
-34.4367 19.4742 0.0
-35.0081 19.0839 0.0
-34.8538 17.7451 0.0
-33.162 14.5179 0.0
-31.0176 15.0972 0.0
-30.772 15.2475 0.0
-50.7765 14.1138 0.0
-51.145 13.7924 0.0
-50.1214 8.52288 0.0
-49.2875 7.16355 0.0
-45.6308 8.92496 0.0
45.114 -12.9961 0.0
44.1945 -12.6857 0.0
38.6046 -13.6644 0.0
38.3834 -14.1218 0.0
37.9664 -17.1779 0.0
39.9734 -18.0811 0.0
19.2157 -36.5593 0.0
20.1944 -36.3654 0.0
26.5953 -31.5523 0.0
26.571 -31.0926 0.0
26.254 -30.6103 0.0
24.2767 -30.4029 0.0
18.7327 -33.5258 0.0
18.8163 -35.7889 0.0
-36.7208 -1.32417 0.0
-33.5272 0.404299 0.0
-37.2806 7.00057 0.0
-39.7229 5.90038 0.0
-39.4811 0.388389 0.0
7.04099 28.706 0.0
3.23895 30.3712 0.0
2.05695 29.7701 0.0
-2.64431 25.6695 0.0
-1.07535 24.3417 0.0
0.03288 24.6825 0.0
8.17235 18.339 0.0
6.91971 18.5879 0.0
1.97544 12.739 0.0
2.24617 12.525 0.0
5.93514 12.1523 0.0
6.15487 12.4366 0.0
8.11449 14.9527 0.0
8.73141 17.0767 0.0
-50.4813 8.12866 0.0
-54.032 8.72377 0.0
-55.0572 4.56702 0.0
-54.3359 4.10909 0.0
-51.6694 3.90807 0.0
-51.2607 4.24407 0.0
-49.7365 6.36648 0.0
-49.6474 6.76933 0.0
-21.4474 -31.7342 0.0
-20.191 -30.2513 0.0
-21.726 -22.8151 0.0
-22.2044 -22.3764 0.0
-23.0141 -22.3165 0.0
-25.451 -25.0992 0.0
-26.2214 -26.4729 0.0
26.7258 40.4417 0.0
26.5415 40.9224 0.0
18.8781 42.1084 0.0
23.533 38.2076 0.0
25.7667 37.5274 0.0
26.6849 39.4009 0.0
-7.58724 30.3372 0.0
-7.13087 27.013 0.0
-5.24712 25.8973 0.0
-4.55894 25.811 0.0
-3.22353 25.7586 0.0
1.47772 29.8592 0.0
-3.08546 -48.16 0.0
-0.398539 -46.5878 0.0
1.37797 -44.8138 0.0
-0.338697 -43.1656 0.0
-4.08352 -39.6596 0.0
-4.85346 -39.8859 0.0
-4.89213 -44.3229 0.0
-4.77442 -47.6415 0.0
-4.52531 -47.8415 0.0
-41.5476 -20.1893 0.0
-43.783 -19.0178 0.0
-48.0116 -23.206 0.0
-46.139 -25.248 0.0
-45.3064 -25.8435 0.0
57.0466 17.4352 0.0
56.5115 17.5701 0.0
52.3179 11.2847 0.0
54.5832 8.34119 0.0
55.815 9.3626 0.0
33.9364 22.5593 0.0
36.9457 24.0084 0.0
34.3701 28.1502 0.0
30.4479 26.9296 0.0
-38.1926 13.6834 0.0
-35.5045 17.4996 0.0
-35.6587 18.8383 0.0
-36.4043 19.4155 0.0
-41.947 14.0374 0.0
17.8847 -33.8421 0.0
17.7767 -33.7466 0.0
8.73479 -37.5105 0.0
7.97337 -38.8059 0.0
11.5351 -37.9883 0.0
17.9683 -36.1052 0.0
-37.4192 7.66025 0.0
-34.87 10.6233 0.0
-39.3348 11.3811 0.0
-41.7343 8.12468 0.0
-39.8615 6.56007 0.0
19.6354 -44.5667 0.0
14.2396 -47.2578 0.0
13.5633 -47.9016 0.0
15.9679 -52.9287 0.0
17.5782 -52.7355 0.0
-16.3286 -49.5758 0.0
-13.6779 -51.7257 0.0
-9.79655 -48.3015 0.0
-9.46985 -47.7639 0.0
-10.62 -46.3365 0.0
-14.1976 -44.8098 0.0
-36.9423 39.7685 0.0
-32.984 38.9721 0.0
-32.5859 43.2633 0.0
-33.558 45.8787 0.0
-35.98 45.2852 0.0
22.0688 29.9137 0.0
17.0413 32.7222 0.0
16.424 28.15 0.0
17.1707 28.0525 0.0
22.18 28.6187 0.0
-10.0295 46.0542 0.0
-8.17268 45.9375 0.0
-4.01732 48.7696 0.0
-4.06759 49.4666 0.0
-10.4604 50.7116 0.0
15.788 -16.1446 0.0
16.7104 -11.3678 0.0
14.5283 -10.1462 0.0
10.8584 -15.5128 0.0
10.8859 -15.8833 0.0
21.1784 9.71495 0.0
23.1736 5.86363 0.0
27.6497 9.67639 0.0
27.6344 9.86436 0.0
27.3697 11.5228 0.0
-36.9708 -3.86214 0.0
-37.0435 -1.79916 0.0
-39.8038 -0.0866076 0.0
-43.0437 -1.05081 0.0
-44.6433 -3.29472 0.0
5.49739 -40.0863 0.0
5.924 -39.5982 0.0
4.31494 -34.5068 0.0
-0.247529 -35.6279 0.0
-1.11774 -36.7849 0.0
-1.13201 -36.9639 0.0
2.64886 -38.9157 0.0
-12.7915 34.5279 0.0
-12.3711 33.5595 0.0
-4.03922 38.8424 0.0
-3.67723 39.4442 0.0
-6.63022 40.6323 0.0
-12.4477 37.0068 0.0
-18.9406 16.6219 0.0
-19.8963 19.4942 0.0
-20.5581 20.4623 0.0
-21.7042 20.4552 0.0
-23.4408 19.0181 0.0
-24.6042 15.4243 0.0
-23.5044 13.3767 0.0
-28.9279 -41.1286 0.0
-27.3536 -41.1304 0.0
-27.9 -35.1499 0.0
-31.5041 -35.5222 0.0
-31.5927 -37.3248 0.0
15.721 15.1024 0.0
15.1053 15.2349 0.0
12.4709 11.9266 0.0
15.6185 9.2871 0.0
18.2274 11.9585 0.0
16.3159 14.6135 0.0
0.848388 -51.8718 0.0
1.43277 -55.3483 0.0
7.98293 -51.3463 0.0
8.32809 -50.6726 0.0
8.3299 -49.4229 0.0
7.1 -49.5229 0.0
11.6269 -3.18796 0.0
6.70624 -1.68945 0.0
5.33493 -5.66232 0.0
5.54084 -7.95941 0.0
15.7526 -2.24261 0.0
20.0713 -4.81342 0.0
20.4112 0.993606 0.0
19.485 1.23522 0.0
17.4635 1.10885 0.0
21.8409 -10.7986 0.0
24.3897 -10.295 0.0
24.981 -9.8668 0.0
27.9701 -2.81565 0.0
27.661 -2.56727 0.0
25.1267 -2.73088 0.0
22.1482 -6.46877 0.0
21.9089 -7.20291 0.0
21.3225 -10.302 0.0
26.3089 41.2472 0.0
26.1632 41.9787 0.0
23.8662 44.2413 0.0
17.5467 45.0836 0.0
16.4741 44.0905 0.0
18.6455 42.4332 0.0
14.2865 -46.6571 0.0
19.6823 -43.966 0.0
20.7174 -43.0588 0.0
18.4219 -39.0307 0.0
14.7753 -41.3457 0.0
-1.39107 14.1568 0.0
-2.10301 15.1492 0.0
-3.25889 15.602 0.0
-5.28879 15.0119 0.0
-9.20208 9.59587 0.0
-8.79793 8.61656 0.0
41.0203 44.6147 0.0
38.4714 40.5976 0.0
44.2881 38.8107 0.0
43.4852 42.822 0.0
42.2406 44.0099 0.0
-21.8756 -2.37883 0.0
-21.6075 -1.75181 0.0
-22.2702 -0.0140422 0.0
-25.258 3.31873 0.0
-30.262 1.42599 0.0
-30.8761 0.294607 0.0
-30.7177 0.100793 0.0
-29.1002 -1.44056 0.0
-3.2996 2.96816 0.0
-4.75217 2.77936 0.0
-5.95768 -4.07311 0.0
-5.53009 -4.22429 0.0
-2.0301 -4.47262 0.0
-0.777679 -2.46007 0.0
-0.29225 -0.589895 0.0
-2.18975 2.35583 0.0
18.663 11.3242 0.0
18.4506 11.3605 0.0
15.8416 8.68913 0.0
15.684 8.27812 0.0
15.3967 7.59859 0.0
16.9927 2.55934 0.0
17.3768 1.88058 0.0
19.3982 2.00694 0.0
-15.2472 39.5829 0.0
-14.3627 38.9843 0.0
-7.72432 43.8131 0.0
-8.52157 45.3637 0.0
-10.3784 45.4803 0.0
-10.9533 45.3815 0.0
-16.1236 -34.6132 0.0
-15.5852 -34.0332 0.0
-12.623 -30.0689 0.0
-14.6212 -28.5861 0.0
-18.3097 -30.3641 0.0
31.8518 49.9993 0.0
27.4483 47.3055 0.0
31.6642 44.0579 0.0
31.8287 44.1165 0.0
33.0764 48.4806 0.0
-13.2365 31.5402 0.0
-16.7849 28.8829 0.0
-16.3805 25.7153 0.0
-13.1695 24.6671 0.0
-12.1981 25.3996 0.0
29.3767 -2.45034 0.0
31.7629 -5.13356 0.0
35.7607 -4.5518 0.0
36.2018 -4.37792 0.0
36.5637 2.43088 0.0
33.165 0.150164 0.0
8.80381 -50.9742 0.0
8.45865 -51.6479 0.0
5.83324 -57.8066 0.0
6.3513 -57.9893 0.0
12.4186 -56.2186 0.0
12.631 -55.868 0.0
-7.7809 45.672 0.0
-6.98365 44.1215 0.0
-6.31795 43.2978 0.0
0.578314 45.2937 0.0
0.573308 45.6628 0.0
-3.62553 48.5042 0.0
-23.6592 28.8721 0.0
-23.5179 28.0847 0.0
-21.6352 21.1852 0.0
-20.4891 21.1922 0.0
-18.5222 23.8529 0.0
-36.4513 -38.5694 0.0
-32.2498 -37.1221 0.0
-32.1611 -35.3194 0.0
-33.1025 -34.1239 0.0
-34.3847 -32.5691 0.0
-37.9657 -33.1159 0.0
-38.1804 -33.7522 0.0
-39.271 -39.4791 0.0
1.57057 45.0376 0.0
8.93276 41.6398 0.0
6.95665 46.02 0.0
3.97768 47.0192 0.0
1.494 45.5598 0.0
1.499 45.1906 0.0
-0.0760692 54.3461 0.0
3.03175 57.8426 0.0
3.28211 58.9584 0.0
-3.3673 60.4216 0.0
-3.86895 60.2398 0.0
-2.70999 55.5703 0.0
-0.968598 54.1757 0.0
50.1355 -10.2878 0.0
49.4077 -12.7432 0.0
52.4314 -18.4636 0.0
53.2304 -18.4259 0.0
[...]
<CellData Scalars="cell variable 4" Vectors="cell vector">
<DataArray type="Float64" NumberOfComponents="3" Name="cell vector" format="ascii">
0 0 0
0 0 0
0 0 0
0 0 0
0 0 0
0 0 0
0 0 0
0 0 0
0 0 0
0 0 0
0 0 0
0 0 0
0 0 0
0 0 0
0 0 0
0 0 0
0 0 0
0 0 0
0 0 0
0 0 0
0 0 0
0 0 0
0 0 0
0 0 0
0 0 0
0 0 0
0 0 0
0 0 0
0 0 0
0 0 0
0 0 0
0 0 0
0 0 0
0 0 0
0 0 0
0 0 0
0 0 0
0 0 0
0 0 0
0 0 0
0 0 0
0 0 0
0 0 0
0 0 0
0 0 0
0 0 0
0 0 0
0 0 0
0 0 0
0 0 0
0 0 0
0 0 0
0 0 0
0 0 0
0 0 0
0 0 0
0 0 0
0 0 0
0 0 0
0 0 0
0 0 0
0 0 0
0 0 0
0 0 0
0 0 0
0 0 0
0 0 0
0 0 0
0 0 0
0 0 0
0 0 0
0 0 0
0 0 0
0 0 0
0 0 0
0 0 0
0 0 0
0 0 0
0 0 0
0 0 0
0 0 0
0 0 0
0 0 0
0 0 0
0 0 0
0 0 0
0 0 0
0 0 0
0 0 0
0 0 0
0 0 0
0 0 0
0 0 0
0 0 0
0 0 0
0 0 0
0 0 0
0 0 0
0 0 0
0 0 0
0 0 0
0 0 0
0 0 0
0 0 0
0 0 0
0 0 0
0 0 0
0 0 0
0 0 0
0 0 0
0 0 0
0 0 0
0 0 0
0 0 0
0 0 0
0 0 0
0 0 0
0 0 0
0 0 0
0 0 0
0 0 0
0 0 0
0 0 0
0 0 0
0 0 0
0 0 0
0 0 0
0 0 0
0 0 0
0 0 0
0 0 0
0 0 0
0 0 0
0 0 0
0 0 0
0 0 0
0 0 0
0 0 0
0 0 0
0 0 0
0 0 0
0 0 0
0 0 0
0 0 0
0 0 0
0 0 0
0 0 0
0 0 0
0 0 0
0 0 0
0 0 0
0 0 0
0 0 0
0 0 0
0 0 0
0 0 0
0 0 0
0 0 0
0 0 0
0 0 0
0 0 0
0 0 0
0 0 0
0 0 0
0 0 0
0 0 0
0 0 0
0 0 0
0 0 0
0 0 0
0 0 0
0 0 0
0 0 0
0 0 0
0 0 0
0 0 0
0 0 0
0 0 0
0 0 0
0 0 0
0 0 0
0 0 0
0 0 0
0 0 0
0 0 0
0 0 0
0 0 0
0 0 0
0 0 0
0 0 0
0 0 0
0 0 0
0 0 0
0 0 0
0 0 0
0 0 0
0 0 0
0 0 0
0 0 0
0 0 0
0 0 0
0 0 0
0 0 0
0 0 0
0 0 0
0 0 0
0 0 0
0 0 0
0 0 0
0 0 0
0 0 0
0 0 0
0 0 0
0 0 0
0 0 0
0 0 0
0 0 0
0 0 0
0 0 0
0 0 0
0 0 0
0 0 0
0 0 0
0 0 0
0 0 0
0 0 0
0 0 0
0 0 0
0 0 0
0 0 0
0 0 0
0 0 0
0 0 0
0 0 0
0 0 0
0 0 0
0 0 0
0 0 0
0 0 0
0 0 0
0 0 0
0 0 0
0 0 0
0 0 0
0 0 0
0 0 0
0 0 0
0 0 0
0 0 0
0 0 0
0 0 0
0 0 0
0 0 0
0 0 0
0 0 0
0 0 0
0 0 0
0 0 0
0 0 0
0 0 0
0 0 0
0 0 0
0 0 0
0 0 0
0 0 0
0 0 0
0 0 0
0 0 0
0 0 0
0 0 0
0 0 0
0 0 0
0 0 0
0 0 0
0 0 0
0 0 0
0 0 0
0 0 0
0 0 0
0 0 0
0 0 0
0 0 0
0 0 0
0 0 0
0 0 0
0 0 0
0 0 0
0 0 0
0 0 0
0 0 0
0 0 0
0 0 0
0 0 0
0 0 0
0 0 0
0 0 0
0 0 0
0 0 0
0 0 0
0 0 0
0 0 0
0 0 0
0 0 0
0 0 0
0 0 0
0 0 0
0 0 0
0 0 0
0 0 0
0 0 0
0 0 0
0 0 0
0 0 0
0 0 0
0 0 0
0 0 0
0 0 0
0 0 0
0 0 0
0 0 0
0 0 0
0 0 0
0 0 0
0 0 0
0 0 0
0 0 0
0 0 0
0 0 0
0 0 0
0 0 0
0 0 0
0 0 0
0 0 0
0 0 0
0 0 0
0 0 0
0 0 0
0 0 0
0 0 0
0 0 0
0 0 0
0 0 0
0 0 0
0 0 0
0 0 0
0 0 0
0 0 0
0 0 0
0 0 0
0 0 0
0 0 0
0 0 0
0 0 0
0 0 0
0 0 0
0 0 0
0 0 0
0 0 0
0 0 0
0 0 0
0 0 0
0 0 0
0 0 0
0 0 0
0 0 0
0 0 0
0 0 0
0 0 0
0 0 0
0 0 0
0 0 0
0 0 0
0 0 0
0 0 0
0 0 0
0 0 0
0 0 0
0 0 0
0 0 0
0 0 0
0 0 0
0 0 0
0 0 0
0 0 0
0 0 0
0 0 0
0 0 0
0 0 0
0 0 0
0 0 0
0 0 0
0 0 0
0 0 0
0 0 0
0 0 0
0 0 0
0 0 0
0 0 0
0 0 0
0 0 0
0 0 0
0 0 0
0 0 0
0 0 0
0 0 0
0 0 0
0 0 0
0 0 0
0 0 0
0 0 0
0 0 0
0 0 0
0 0 0
0 0 0
0 0 0
0 0 0
0 0 0
0 0 0
</DataArray>
<DataArray type="Float64" Name="cell vector length" format="ascii">
0 0 0 0 0 0 0 0 0 0 0 0 0 0 0 0 0 0 0 0 0 0 0 0 0 0 0 0 0 0 0 0 0 0 0 0 0 0 0 0 0 0 0 0 0 0 0 0 0 0 0 0 0 0 0 0 0 0 0 0 0 0 0 0 0 0 0 0 0 0 0 0 0 0 0 0 0 0 0 0 0 0 0 0 0 0 0 0 0 0 0 0 0 0 0 0 0 0 0 0 0 0 0 0 0 0 0 0 0 0 0 0 0 0 0 0 0 0 0 0 0 0 0 0 0 0 0 0 0 0 0 0 0 0 0 0 0 0 0 0 0 0 0 0 0 0 0 0 0 0 0 0 0 0 0 0 0 0 0 0 0 0 0 0 0 0 0 0 0 0 0 0 0 0 0 0 0 0 0 0 0 0 0 0 0 0 0 0 0 0 0 0 0 0 0 0 0 0 0 0 0 0 0 0 0 0 0 0 0 0 0 0 0 0 0 0 0 0 0 0 0 0 0 0 0 0 0 0 0 0 0 0 0 0 0 0 0 0 0 0 0 0 0 0 0 0 0 0 0 0 0 0 0 0 0 0 0 0 0 0 0 0 0 0 0 0 0 0 0 0 0 0 0 0 0 0 0 0 0 0 0 0 0 0 0 0 0 0 0 0 0 0 0 0 0 0 0 0 0 0 0 0 0 0 0 0 0 0 0 0 0 0 0 0 0 0 0 0 0 0 0 0 0 0 0 0 0 0 0 0 0 0 0 0 0 0 0 0 0 0 0 0 0 0 0 0 0 0 0 0 0 0 0 0 0 0 0 0 0 0 0 0 0 0 0 0 0 0 0 0 0 0 0 0 0 0 0 0 0 0 0 0 0 0 0 0 0 0 0 0 0 0 0 0 0 0 0 0 0 0 0 0 0 0 0 0 0 0 0 0 0 0 0 0 0 0 0 0 
</DataArray>
<DataArray type="Float64" Name="cell variable 4" format="ascii">
0.316217 0.000510187 6.16323e-05 1.07467 0.249242 0.0032488 5.60239e-07 0.94865 0.000319359 0.000137838 0.23011 0.479217 5.48914e-07 1.04461 1.14453e-06 0.000586701 0.334198 0.0032488 0.573608 0.161465 0.0032488 0.99432 0.511974 0.511974 0.000425284 0.495708 0.393381 0.00403603 0.0824302 0.163146 0.332003 0.626025 0.980966 3.42138e-05 0.437452 0.161465 0.36504 0.184973 0.00760007 4.69927e-06 0.252014 0.179448 0.187543 0.179448 0.000160982 0.000319359 0.000137838 0.434405 0.000705084 0.657465 0.848855 0.23011 0.442722 0.33356 0.673042 0.136507 1.06245 0.000237451 1.11547 0.912892 0.573608 0.161465 0.187543 1.07467 1.55471e-05 0.542818 1.12037 0.848855 0.130161 0.393247 4.18495e-05 0.503886 0.45141 0.000237451 0.0976075 0.371127 0.000116047 0.0505895 5.96913e-06 1.61534e-05 5.26566e-05 0.00103121 0.495708 0.0032488 0.118662 4.61276e-06 0.0824302 1.10185 1.14226 0.371127 0.184973 0.708918 5.26566e-05 0.000160982 4.42555e-05 0.00273317 0.118662 3.42138e-05 1.38398e-06 0.163146 0.503886 1.04461 0.249242 0.313432 0.631062 0.919422 0.479217 5.76039e-06 0.434405 0.912892 0.542818 0.00370628 0.000157331 0.673042 3.49399e-07 8.33062e-06 2.42345e-06 6.16323e-05 0.000116047 0.789941 0.00403603 0.153908 0.399988 0.343308 0.393381 0.000425284 0.179448 0.573608 0.99432 0.000705084 0.514292 4.42555e-05 0.789941 0.000705084 0.66381 4.18495e-05 0.50937 4.61276e-06 1.04461 0.0505895 0.184973 1.00681 7.58754e-07 0.393247 0.187543 1.61534e-05 0.66381 1.5044e-05 0.32239 8.68069e-05 0.0773391 0.980966 0.00151096 0.919422 1.00681 1.23799e-05 0.23011 0.790107 0.542818 0.000237451 3.42138e-05 0.94865 0.848855 0.136507 1.1995e-07 0.763876 0.657465 1.68594e-06 7.29789e-07 0.36504 0.27464 0.184973 0.00403603 0.371127 0.163146 0.313432 1.00681 1.00681 0.130161 0.0824302 1.12037 0.179448 0.00760007 0.000331293 0.00103121 2.42345e-06 0.657465 1.11547 0.313432 0.136507 1.23799e-05 1.68594e-06 1.07467 5.26566e-05 7.58754e-07 0.000209614 0.94865 0.0773391 1.5044e-05 4.18495e-05 0.790107 0.393247 0.161465 1.55471e-05 0.631062 0.50937 0.45141 0.00760007 8.68069e-05 0.442722 0.514292 0.000157331 2.42345e-06 0.495708 0.0773391 0.153908 0.316217 0.136507 1.38398e-06 1.23799e-05 0.252014 0.316217 0.434405 0.00145277 0.000306373 0.8063 0.000331293 0.332003 0.0978407 0.763876 4.42555e-05 0.90618 0.27464 0.187543 0.000510187 0.0646441 1.10185 1.14453e-06 0.00370628 0.631062 1.55471e-05 4.69927e-06 0.343308 0.32239 0.000306373 0.399988 0.90618 0.736473 0.153908 0.0032488 0.00760007 0.393247 0.626025 0.36504 0.316217 0.763876 1.10185 0.27464 0.0097703 0.000705084 0.32239 0.514292 0.184059 1.5044e-05 0.000209614 0.27464 0.0978407 0.0505895 0.437452 4.61276e-06 0.000319359 0.789941 0.136507 0.542818 7.29789e-07 0.000586701 0.136507 3.49399e-07 0.184973 0.0505895 0.187543 3.42138e-05 0.00370628 0.00103121 0.000116047 0.000157331 0.00760007 0.343308 0.50937 0.0097703 0.0505895 0.23011 0.00151096 0.0978407 3.09214e-07 0.0032488 0.000319359 0.184973 0.66381 0.673042 0.912892 0.790107 0.153908 0.179448 0.0646441 0.118662 0.000160982 0.00145277 0.000510187 1.61534e-05 0.631062 0.542818 2.24794e-07 5.48914e-07 0.912892 0.153908 0.130161 1.11547 0.980966 0.8063 0.0824302 0.32239 0.161465 0.399988 4.69927e-06 0.118662 0.153908 1.14226 0.00103121 0.33356 0.163146 0.000137838 0.708918 5.26566e-05 0.626025 5.96913e-06 6.16323e-05 0.495708 0.36504 1.55471e-05 0.542818 0.249242 0.000425284 3.42138e-05 0.000425284 7.58754e-07 0.187543 0.848855 0.000510187 0.434405 0.657465 0.573608 0.919422 0.442722 0.399988 0.252014 0.000137838 0.8063 0.00273317 1.14226 0.000237451 0.343308 6.16323e-05 1.23799e-05 0.919422 0.763876 0.00145277 0.313432 0.789941 1.11547 5.76039e-06 0.442722 0.0773391 1.10185 5.96913e-06 0.790107 0.136507 0.184059 0.673042 0.00370628 0.66381 0.000160982 1.06245 0.514292 0.0976075 0.00151096 0.252014 0.249242 1.14226 0.000157331 0.626025 1.04461 0.179448 1.61534e-05 0.334198 8.33062e-06 0.00151096 0.511974 1.06245 6.13175e-07 0.0505895 0.736473 5.76039e-06 4.42555e-05 0.511974 0.130161 0.23011 7.29789e-07 0.23011 8.33062e-06 0.371127 1.5044e-05 8.33062e-06 0.136507 0.0978407 0.45141 1.06245 0.23011 
</DataArray>
<DataArray type="Float64" Name="cell variable 5" format="ascii">
0.0909148 0.999974 1 0.00858434 0.138655 0.998946 1 0.0109898 0.99999 0.999998 0.158855 0.0417277 1 0.00908091 1 0.999966 0.082177 0.998946 0.0294962 0.277231 0.998946 0.0100133 0.0367488 0.0367488 0.999982 0.0391044 0.0606986 0.998374 0.595425 0.273099 0.0831765 0.0248813 0.0102849 1 0.0496613 0.277231 0.0698059 0.226167 0.994257 1 0.136034 0.236958 0.221374 0.236958 0.999997 0.99999 0.999998 0.0503251 0.99995 0.0226112 0.0136882 0.158855 0.0485429 0.0824658 0.021599 0.349234 0.00878122 0.999994 0.00797274 0.0118572 0.0294962 0.277231 0.221374 0.00858434 1 0.0328244 0.00790366 0.0136882 0.371169 0.0607373 1 0.037893 0.0467791 0.999994 0.512105 0.0676886 0.999999 0.796223 1 1 1 0.999894 0.0391044 0.998946 0.415271 1 0.595425 0.00816951 0.00760594 0.0676886 0.226167 0.0195097 1 0.999997 1 0.999254 0.415271 1 1 0.273099 0.037893 0.00908091 0.138655 0.0923878 0.0244954 0.0116913 0.0417277 1 0.0503251 0.0118572 0.0328244 0.998628 0.999998 0.021599 1 1 1 1 0.999999 0.0157727 0.998374 0.296844 0.0588268 0.0782104 0.0606986 0.999982 0.236958 0.0294962 0.0100133 0.99995 0.0364304 1 0.0157727 0.99995 0.0221905 1 0.0371116 1 0.00908091 0.796223 0.226167 0.00976872 1 0.0607373 0.221374 1 0.0221905 1 0.0877689 0.999999 0.62573 0.0102849 0.999772 0.0116913 0.00976872 1 0.158855 0.0157662 0.0328244 0.999994 1 0.0109898 0.0136882 0.349234 1 0.016849 0.0226112 1 1 0.0698059 0.117059 0.226167 0.998374 0.0676886 0.273099 0.0923878 0.00976872 0.00976872 0.371169 0.595425 0.00790366 0.236958 0.994257 0.999989 0.999894 1 0.0226112 0.00797274 0.0923878 0.349234 1 1 0.00858434 1 1 0.999996 0.0109898 0.62573 1 1 0.0157662 0.0607373 0.277231 1 0.0244954 0.0371116 0.0467791 0.994257 0.999999 0.0485429 0.0364304 0.999998 1 0.0391044 0.62573 0.296844 0.0909148 0.349234 1 1 0.136034 0.0909148 0.0503251 0.999789 0.999991 0.0151488 0.999989 0.0831765 0.510913 0.016849 1 0.0120314 0.117059 0.221374 0.999974 0.705275 0.00816951 1 0.998628 0.0244954 1 1 0.0782104 0.0877689 0.999991 0.0588268 0.0120314 0.0181031 0.296844 0.998946 0.994257 0.0607373 0.0248813 0.0698059 0.0909148 0.016849 0.00816951 0.117059 0.990544 0.99995 0.0877689 0.0364304 0.227907 1 0.999996 0.117059 0.510913 0.796223 0.0496613 1 0.99999 0.0157727 0.349234 0.0328244 1 0.999966 0.349234 1 0.226167 0.796223 0.221374 1 0.998628 0.999894 0.999999 0.999998 0.994257 0.0782104 0.0371116 0.990544 0.796223 0.158855 0.999772 0.510913 1 0.998946 0.99999 0.226167 0.0221905 0.021599 0.0118572 0.0157662 0.296844 0.236958 0.705275 0.415271 0.999997 0.999789 0.999974 1 0.0244954 0.0328244 1 1 0.0118572 0.296844 0.371169 0.00797274 0.0102849 0.0151488 0.595425 0.0877689 0.277231 0.0588268 1 0.415271 0.296844 0.00760594 0.999894 0.0824658 0.273099 0.999998 0.0195097 1 0.0248813 1 1 0.0391044 0.0698059 1 0.0328244 0.138655 0.999982 1 0.999982 1 0.221374 0.0136882 0.999974 0.0503251 0.0226112 0.0294962 0.0116913 0.0485429 0.0588268 0.136034 0.999998 0.0151488 0.999254 0.00760594 0.999994 0.0782104 1 1 0.0116913 0.016849 0.999789 0.0923878 0.0157727 0.00797274 1 0.0485429 0.62573 0.00816951 1 0.0157662 0.349234 0.227907 0.021599 0.998628 0.0221905 0.999997 0.00878122 0.0364304 0.512105 0.999772 0.136034 0.138655 0.00760594 0.999998 0.0248813 0.00908091 0.236958 1 0.082177 1 0.999772 0.0367488 0.00878122 1 0.796223 0.0181031 1 1 0.0367488 0.371169 0.158855 1 0.158855 1 0.0676886 1 1 0.349234 0.510913 0.0467791 0.00878122 0.158855 
</DataArray>
<DataArray type="Float64" Name="cell variable 6" format="ascii">
0.0038835 1.00883 1.00913 5.3719e-06 0.0566856 1.00681 1.00917 1.10661e-05 1.00896 1.00908 0.0671729 0.00051123 1.00917 6.33494e-06 1.00917 1.00878 0.00576492 1.00681 0.000187165 0.298329 1.00681 8.43313e-06 0.00035504 0.00035504 1.00889 0.000410215 0.00151522 1.00605 0.752638 0.294057 0.00364689 0.000115922 9.11938e-06 1.00915 0.000885689 0.298329 0.0019794 0.208208 1.00277 1.00917 0.0441278 0.235078 0.185318 0.235078 1.00907 1.00896 1.00908 0.000857904 1.0087 8.84138e-05 2.09522e-05 0.0671729 0.000858618 0.00403961 7.76673e-05 0.432355 5.74138e-06 1.00902 4.32387e-06 1.38076e-05 0.000187165 0.298329 0.185318 5.3719e-06 1.00916 0.000251962 4.21468e-06 2.09522e-05 0.477444 0.00202135 1.00915 0.000380196 0.000696942 1.00902 0.67289 0.0019189 1.0091 0.900072 1.00917 1.00916 1.00914 1.00849 0.000410215 1.00681 0.533485 1.00917 0.752638 4.64493e-06 3.76475e-06 0.0019189 0.208208 5.81379e-05 1.00914 1.00907 1.00914 1.00716 0.533485 1.00915 1.00917 0.294057 0.000380196 6.33494e-06 0.0566856 0.00439847 0.000110922 1.32528e-05 0.00051123 1.00917 0.000857904 1.38076e-05 0.000251962 1.00642 1.00907 7.76673e-05 1.00917 1.00917 1.00917 1.00913 1.0091 3.156e-05 1.00605 0.3398 0.00127682 0.00310284 0.00151522 1.00889 0.235078 0.000187165 8.43313e-06 1.0087 0.000349016 1.00914 3.156e-05 1.0087 8.3838e-05 1.00915 0.000394946 1.00917 6.33494e-06 0.900072 0.208208 7.8448e-06 1.00917 0.00202135 0.185318 1.00916 8.3838e-05 1.00916 0.00628005 1.00912 0.780596 9.11938e-06 1.00816 1.32528e-05 7.8448e-06 1.00917 0.0671729 3.15261e-05 0.000251962 1.00902 1.00915 1.10661e-05 2.09522e-05 0.432355 1.00917 3.81646e-05 8.84138e-05 1.00917 1.00917 0.0019794 0.02163 0.208208 1.00605 0.0019189 0.294057 0.00439847 7.8448e-06 7.8448e-06 0.477444 0.752638 4.21468e-06 0.235078 1.00277 1.00895 1.00849 1.00917 8.84138e-05 4.32387e-06 0.00439847 0.432355 1.00917 1.00917 5.3719e-06 1.00914 1.00917 1.00904 1.10661e-05 0.780596 1.00916 1.00915 3.15261e-05 0.00202135 0.298329 1.00916 0.000110922 0.000394946 0.000696942 1.00277 1.00912 0.000858618 0.000349016 1.00907 1.00917 0.000410215 0.780596 0.3398 0.0038835 0.432355 1.00917 1.00917 0.0441278 0.0038835 0.000857904 1.00814 1.00897 2.80904e-05 1.00895 0.00364689 0.674122 3.81646e-05 1.00914 1.4406e-05 0.02163 0.185318 1.00883 0.841792 4.64493e-06 1.00917 1.00642 0.000110922 1.00916 1.00917 0.00310284 0.00628005 1.00897 0.00127682 1.4406e-05 4.69278e-05 0.3398 1.00681 1.00277 0.00202135 0.000115922 0.0019794 0.0038835 3.81646e-05 4.64493e-06 0.02163 1.00014 1.0087 0.00628005 0.000349016 0.235443 1.00916 1.00904 0.02163 0.674122 0.900072 0.000885689 1.00917 1.00896 3.156e-05 0.432355 0.000251962 1.00917 1.00878 0.432355 1.00917 0.208208 0.900072 0.185318 1.00915 1.00642 1.00849 1.0091 1.00907 1.00277 0.00310284 0.000394946 1.00014 0.900072 0.0671729 1.00816 0.674122 1.00917 1.00681 1.00896 0.208208 8.3838e-05 7.76673e-05 1.38076e-05 3.15261e-05 0.3398 0.235078 0.841792 0.533485 1.00907 1.00814 1.00883 1.00916 0.000110922 0.000251962 1.00917 1.00917 1.38076e-05 0.3398 0.477444 4.32387e-06 9.11938e-06 2.80904e-05 0.752638 0.00628005 0.298329 0.00127682 1.00917 0.533485 0.3398 3.76475e-06 1.00849 0.00403961 0.294057 1.00908 5.81379e-05 1.00914 0.000115922 1.00917 1.00913 0.000410215 0.0019794 1.00916 0.000251962 0.0566856 1.00889 1.00915 1.00889 1.00917 0.185318 2.09522e-05 1.00883 0.000857904 8.84138e-05 0.000187165 1.32528e-05 0.000858618 0.00127682 0.0441278 1.00908 2.80904e-05 1.00716 3.76475e-06 1.00902 0.00310284 1.00913 1.00917 1.32528e-05 3.81646e-05 1.00814 0.00439847 3.156e-05 4.32387e-06 1.00917 0.000858618 0.780596 4.64493e-06 1.00917 3.15261e-05 0.432355 0.235443 7.76673e-05 1.00642 8.3838e-05 1.00907 5.74138e-06 0.000349016 0.67289 1.00816 0.0441278 0.0566856 3.76475e-06 1.00907 0.000115922 6.33494e-06 0.235078 1.00916 0.00576492 1.00917 1.00816 0.00035504 5.74138e-06 1.00917 0.900072 4.69278e-05 1.00917 1.00914 0.00035504 0.477444 0.0671729 1.00917 0.0671729 1.00917 0.0019189 1.00916 1.00917 0.432355 0.674122 0.000696942 5.74138e-06 0.0671729 
</DataArray>
<DataArray type="Float64" Name="cell variable 7" format="ascii">
0.357275 0.805214 0.804393 0.0863829 0.413855 0.731648 0.910934 0.109939 0.786592 0.818915 0.46057 0.24144 0.895885 0.091923 0.908704 0.789622 0.334908 0.731648 0.203114 0.543895 0.731648 0.10127 0.2268 0.2268 0.777768 0.233945 0.290041 0.781706 0.652741 0.531783 0.340125 0.185875 0.103782 0.881455 0.262734 0.543895 0.311423 0.488241 0.695937 0.865788 0.422896 0.481302 0.511928 0.481302 0.804465 0.786592 0.818915 0.264653 0.790771 0.176526 0.129973 0.46057 0.259721 0.337987 0.172124 0.58017 0.0886341 0.815305 0.0788486 0.116913 0.203114 0.543895 0.511928 0.0863829 0.87201 0.214434 0.0779382 0.129973 0.557964 0.288948 0.828165 0.230311 0.255368 0.815305 0.58928 0.306453 0.821805 0.667622 0.876672 0.855098 0.808066 0.74517 0.233945 0.731648 0.633332 0.89681 0.652741 0.0813708 0.0738515 0.306453 0.488241 0.162493 0.808066 0.804465 0.85435 0.786302 0.633332 0.881455 0.900885 0.531783 0.230311 0.091923 0.413855 0.360012 0.184332 0.115625 0.24144 0.912087 0.264653 0.116913 0.214434 0.736426 0.802201 0.172124 0.887905 0.869271 0.886845 0.804393 0.821805 0.142859 0.781706 0.544906 0.285858 0.329428 0.290041 0.777768 0.481302 0.203114 0.10127 0.790771 0.225806 0.85435 0.142859 0.790771 0.174715 0.828165 0.227704 0.89681 0.091923 0.667622 0.488241 0.0989326 0.900971 0.288948 0.511928 0.855098 0.174715 0.867885 0.347352 0.812727 0.646851 0.103782 0.723507 0.115625 0.0989326 0.864126 0.46057 0.142821 0.214434 0.815305 0.881455 0.109939 0.129973 0.58017 0.91048 0.148901 0.176526 0.922196 0.91184 0.311423 0.399197 0.488241 0.781706 0.306453 0.531783 0.360012 0.0989326 0.0989326 0.557964 0.652741 0.0779382 0.481302 0.695937 0.823381 0.74517 0.886845 0.176526 0.0788486 0.360012 0.58017 0.864126 0.922196 0.0863829 0.808066 0.900971 0.803638 0.109939 0.646851 0.867885 0.828165 0.142821 0.288948 0.543895 0.87201 0.184332 0.227704 0.255368 0.695937 0.812727 0.259721 0.225806 0.802201 0.886845 0.233945 0.646851 0.544906 0.357275 0.58017 0.900885 0.864126 0.422896 0.357275 0.264653 0.822606 0.774006 0.139181 0.823381 0.340125 0.570965 0.148901 0.85435 0.118245 0.399197 0.511928 0.805214 0.663687 0.0813708 0.908704 0.736426 0.184332 0.87201 0.865788 0.329428 0.347352 0.774006 0.285858 0.118245 0.15552 0.544906 0.731648 0.695937 0.288948 0.185875 0.311423 0.357275 0.148901 0.0813708 0.399197 0.724735 0.790771 0.347352 0.225806 0.426674 0.867885 0.803638 0.399197 0.570965 0.667622 0.262734 0.89681 0.786592 0.142859 0.58017 0.214434 0.91184 0.789622 0.58017 0.887905 0.488241 0.667622 0.511928 0.881455 0.736426 0.74517 0.821805 0.802201 0.695937 0.329428 0.227704 0.724735 0.667622 0.46057 0.723507 0.570965 0.914119 0.731648 0.786592 0.488241 0.174715 0.172124 0.116913 0.142821 0.544906 0.481302 0.663687 0.633332 0.804465 0.822606 0.805214 0.855098 0.184332 0.214434 0.921969 0.895885 0.116913 0.544906 0.557964 0.0788486 0.103782 0.139181 0.652741 0.347352 0.543895 0.285858 0.865788 0.633332 0.544906 0.0738515 0.74517 0.337987 0.531783 0.818915 0.162493 0.808066 0.185875 0.876672 0.804393 0.233945 0.311423 0.87201 0.214434 0.413855 0.777768 0.881455 0.777768 0.900971 0.511928 0.129973 0.805214 0.264653 0.176526 0.203114 0.115625 0.259721 0.285858 0.422896 0.818915 0.139181 0.786302 0.0738515 0.815305 0.329428 0.804393 0.864126 0.115625 0.148901 0.822606 0.360012 0.142859 0.0788486 0.912087 0.259721 0.646851 0.0813708 0.876672 0.142821 0.58017 0.426674 0.172124 0.736426 0.174715 0.804465 0.0886341 0.225806 0.58928 0.723507 0.422896 0.413855 0.0738515 0.802201 0.185875 0.091923 0.481302 0.855098 0.334908 0.869271 0.723507 0.2268 0.0886341 0.926956 0.667622 0.15552 0.912087 0.85435 0.2268 0.557964 0.46057 0.91184 0.46057 0.869271 0.306453 0.867885 0.869271 0.58017 0.570965 0.255368 0.0886341 0.46057 
</DataArray>
<DataArray type="Float64" Name="cell variable 8" format="ascii">