<VTKFile type="UnstructuredGrid" version="0.1">
<UnstructuredGrid>
<Piece  NumberOfPoints="    2446" NumberOfCells="     408">
<Points>
<DataArray type="Float64" NumberOfComponents="3" format="ascii">
27.6481 -25.9329 0.0
27.0151 -26.5139 0.0
31.4738 -30.1259 0.0
32.7635 -28.8076 0.0
32.7227 -24.0623 0.0
37.4311 -40.9313 0.0
37.3669 -40.2808 0.0
31.2895 -39.6986 0.0
30.5061 -40.3371 0.0
27.826 -45.3842 0.0
27.6449 -46.1199 0.0
-23.4149 54.5023 0.0
-26.3665 54.8962 0.0
-27.9465 54.4534 0.0
-29.5646 53.4228 0.0
-27.0756 48.6073 0.0
-24.112 49.0037 0.0
0.0626913 13.6791 0.0
-1.5794 15.2547 0.0
-9.37345 9.45052 0.0
-8.96179 7.47051 0.0
-8.72267 7.17811 0.0
-0.8156 12.9731 0.0
47.2764 -7.47427 0.0
48.3693 -6.54103 0.0
46.3504 -1.48799 0.0
43.5947 -3.96987 0.0
42.1498 -5.76893 0.0
43.38 -8.29091 0.0
50.3686 -5.99331 0.0
52.0184 -7.34828 0.0
55.12 -3.20611 0.0
51.87 -0.363715 0.0
-28.6554 -2.62563 0.0
-29.3614 -2.38443 0.0
-32.1201 -2.15096 0.0
-30.785 -6.63795 0.0
-28.0465 -9.09251 0.0
-27.6834 -9.32675 0.0
-26.9773 -9.15032 0.0
11.6154 -16.7659 0.0
15.675 -11.1268 0.0
14.5562 -9.0493 0.0
7.69699 -11.458 0.0
10.08 -15.4754 0.0
-26.7283 -54.9981 0.0
-24.6934 -57.9344 0.0
-23.4804 -58.7998 0.0
-19.8128 -54.7042 0.0
-23.5453 -51.2358 0.0
-47.4482 39.1381 0.0
-47.5307 38.6207 0.0
-46.5847 37.8506 0.0
-41.8122 35.5673 0.0
-41.0197 35.9794 0.0
-37.8309 40.3335 0.0
-49.3293 -11.215 0.0
-46.6233 -11.6138 0.0
-40.8807 -6.43193 0.0
-41.059 -6.20359 0.0
-50.0731 -8.49221 0.0
-34.2422 -12.7753 0.0
-38.3753 -11.2458 0.0
-39.3578 -12.4776 0.0
-39.164 -14.9614 0.0
-38.9148 -17.5133 0.0
-38.7967 -17.5846 0.0
-45.3577 -15.8186 0.0
-45.7455 -12.7704 0.0
-46.7957 -12.1634 0.0
-49.5017 -11.7645 0.0
-50.0975 -13.0866 0.0
-49.75 -17.039 0.0
-49.3411 -17.611 0.0
-6.37438 -5.42217 0.0
-6.83762 -5.19444 0.0
-8.6885 -5.59926 0.0
-9.0745 -6.74516 0.0
-10.0153 -10.6901 0.0
-6.01 -12.3125 0.0
-4.87085 -11.2859 0.0
29.4504 -6.37001 0.0
31.0261 -2.92957 0.0
30.6861 -2.62615 0.0
27.7918 -2.61127 0.0
24.2996 -6.68886 0.0
24.0823 -7.55913 0.0
24.1132 -7.91828 0.0
-56.2659 -22.192 0.0
-54.4448 -25.0515 0.0
-53.1194 -25.4084 0.0
-48.7392 -20.8998 0.0
-49.7843 -18.3365 0.0
-50.1933 -17.7645 0.0
-17.2022 43.2235 0.0
-18.0148 43.1953 0.0
-18.8626 37.7905 0.0
-17.4077 37.7905 0.0
-14.8463 38.0446 0.0
-14.4773 40.8705 0.0
-16.1504 42.6408 0.0
54.5343 5.98583 0.0
54.5749 13.3207 0.0
51.6453 12.9281 0.0
50.58 9.89862 0.0
28.2384 -10.8269 0.0
32.4571 -10.2024 0.0
34.5071 -6.19188 0.0
32.8685 -4.14057 0.0
31.9681 -3.2234 0.0
31.4055 -3.15582 0.0
29.8298 -6.59625 0.0
26.1478 35.5522 0.0
29.7105 37.3978 0.0
28.2851 41.0556 0.0
25.7762 41.8325 0.0
24.575 41.7565 0.0
20.9118 41.2226 0.0
23.631 38.2316 0.0
56.0663 -3.23404 0.0
57.8508 -5.49455 0.0
58.735 -5.13745 0.0
58.9056 -4.78058 0.0
59.6936 -1.34113 0.0
58.8009 2.18745 0.0
57.3257 2.32885 0.0
-12.1055 19.7649 0.0
-12.2551 19.8303 0.0
-14.5825 19.7796 0.0
-17.7475 15.0454 0.0
-17.7439 13.301 0.0
-16.5282 12.6103 0.0
22.1064 25.1563 0.0
23.4859 23.762 0.0
29.247 27.9748 0.0
29.1104 28.8951 0.0
25.0872 30.5814 0.0
27.8603 16.5137 0.0
30.749 15.1462 0.0
33.748 17.0566 0.0
34.1551 21.25 0.0
33.851 22.1446 0.0
32.0682 22.9429 0.0
31.3633 22.6051 0.0
-42.0216 35.0984 0.0
-46.7941 37.3817 0.0
-45.8848 30.342 0.0
-44.2634 29.2884 0.0
-42.6203 33.5604 0.0
-33.9414 15.8519 0.0
-36.3648 15.2198 0.0
-37.2429 12.1309 0.0
-35.3876 10.1082 0.0
-29.4409 10.451 0.0
-31.9764 24.292 0.0
-32.4223 25.0825 0.0
-38.1532 21.6817 0.0
-38.7882 21.1877 0.0
-38.6591 19.6028 0.0
-37.3764 17.6209 0.0
-55.9298 15.6026 0.0
-56.3619 15.3128 0.0
-56.3342 14.6206 0.0
-55.5068 9.46755 0.0
-54.5143 7.94653 0.0
-50.5324 10.138 0.0
49.6252 -14.4671 0.0
48.6577 -14.0031 0.0
42.638 -15.1961 0.0
42.3679 -15.727 0.0
42.1327 -19.1549 0.0
44.4522 -19.9312 0.0
21.3026 -40.4458 0.0
22.4348 -40.2058 0.0
29.2932 -35.0071 0.0
29.3446 -34.4864 0.0
29.0243 -33.9031 0.0
26.797 -33.5768 0.0
20.5572 -36.9859 0.0
20.744 -39.6024 0.0
-37.1309 0.366841 0.0
-37.9854 1.66444 0.0
-43.6311 3.45747 0.0
-43.6871 0.343136 0.0
-40.6709 -1.67492 0.0
7.5789 31.6733 0.0
3.37975 33.5408 0.0
2.04683 32.8558 0.0
-2.77471 28.1419 0.0
-0.875982 26.7842 0.0
0.356254 27.1949 0.0
8.93001 20.0674 0.0
7.4662 20.2919 0.0
2.1281 14.0172 0.0
2.42857 13.7659 0.0
6.60357 13.2256 0.0
6.90226 13.5087 0.0
9.10002 16.2799 0.0
9.66704 18.6651 0.0
-55.8815 9.00473 0.0
-59.6002 9.31485 0.0
-60.3575 4.96686 0.0
-59.8246 4.32487 0.0
-57.037 4.08551 0.0
-56.5721 4.45745 0.0
-54.9692 6.9969 0.0
-54.8891 7.4837 0.0
-24.2129 -25.058 0.0
-24.6272 -24.6117 0.0
-25.5659 -24.5119 0.0
-28.367 -27.4465 0.0
-29.0938 -29.03 0.0
-26.1144 -32.2215 0.0
29.5807 44.6824 0.0
29.3346 45.2425 0.0
21.1579 46.6794 0.0
25.8205 42.3441 0.0
28.3294 41.5673 0.0
29.5694 43.5005 0.0
-3.93879 28.2575 0.0
-3.19815 28.2469 0.0
1.62338 32.9609 0.0
-4.08359 33.2568 0.0
-3.44316 -53.3551 0.0
-1.54206 -52.0527 0.0
-5.17894 -44.234 0.0
-5.36223 -44.2625 0.0
-5.70508 -49.0554 0.0
-5.42735 -52.6935 0.0
-5.12522 -52.9228 0.0
-46.0237 -22.5228 0.0
-48.45 -21.1995 0.0
-52.8301 -25.708 0.0
-50.906 -28.0134 0.0
-49.9061 -28.4555 0.0
40.5543 -20.1738 0.0
41.5187 -19.3171 0.0
41.7538 -15.8892 0.0
36.9422 -17.6862 0.0
33.9977 -18.8062 0.0
37.305 25.1771 0.0
40.673 26.6717 0.0
39.6479 28.3428 0.0
37.7793 31.1502 0.0
33.6574 29.6498 0.0
-42.3099 15.1631 0.0
-39.2885 19.2462 0.0
-39.4176 20.8311 0.0
-40.3162 21.4341 0.0
-46.1938 15.6248 0.0
19.6306 -37.334 0.0
19.4968 -37.2282 0.0
9.92408 -41.3311 0.0
9.0301 -42.7044 0.0
12.9365 -42.1767 0.0
19.8174 -39.9504 0.0
-39.1784 10.6863 0.0
-38.5187 11.5948 0.0
-43.1893 12.4773 0.0
-46.0213 9.09759 0.0
-43.9616 7.28915 0.0
-41.2275 8.2747 0.0
21.6526 -49.4387 0.0
15.6853 -52.1277 0.0
14.9139 -52.8599 0.0
17.6537 -58.1246 0.0
19.4101 -57.921 0.0
-18.1252 -54.6144 0.0
-15.2253 -56.8827 0.0
-10.9537 -53.4026 0.0
-10.5938 -52.8014 0.0
-11.8196 -51.1159 0.0
-14.0391 -50.1527 0.0
-15.8156 -49.6253 0.0
6.14921 -10.5187 0.0
6.74148 -10.6867 0.0
14.4687 -5.00736 0.0
14.4162 -4.22941 0.0
13.5623 -3.77702 0.0
12.8833 -3.81391 0.0
6.44261 -8.82998 0.0
24.168 33.049 0.0
18.5684 35.9285 0.0
18.087 31.1322 0.0
18.8627 30.8442 0.0
24.3058 31.5705 0.0
-11.1744 50.8875 0.0
-9.06476 50.6503 0.0
-4.53677 53.8921 0.0
-4.63345 54.681 0.0
-11.5281 55.7014 0.0
17.356 -17.8385 0.0
18.5026 -12.7232 0.0
16.0612 -11.3864 0.0
12.0017 -17.0255 0.0
12.088 -17.4362 0.0
23.6853 10.8954 0.0
25.6557 6.71089 0.0
30.5914 10.581 0.0
30.5983 10.7974 0.0
30.1806 12.6465 0.0
-41.196 -4.34478 0.0
-41.0651 -1.99539 0.0
-44.0812 0.0226704 0.0
-47.6953 -0.837433 0.0
-49.3309 -3.46852 0.0
6.18719 -44.109 0.0
6.66577 -43.5263 0.0
4.82038 -38.1957 0.0
-0.0952899 -39.2226 0.0
-1.10008 -40.5023 0.0
-1.1176 -40.7126 0.0
2.91956 -43.0876 0.0
-13.7724 36.9523 0.0
-9.01603 39.9556 0.0
-11.0865 42.6331 0.0
-14.0117 40.8388 0.0
-14.3807 38.013 0.0
-21.045 18.2979 0.0
-21.8562 21.5566 0.0
-22.637 22.6277 0.0
-23.9261 22.6708 0.0
-25.9504 21.1782 0.0
-27.1345 17.1521 0.0
-25.8368 14.9225 0.0
-32.1181 -45.3671 0.0
-30.3451 -45.2312 0.0
-30.9394 -39.0282 0.0
-34.8212 -39.2621 0.0
-35.0101 -41.2398 0.0
17.3892 16.9 0.0
16.6851 16.8855 0.0
13.9735 13.4211 0.0
17.0533 10.3936 0.0
20.1645 13.1769 0.0
18.1261 16.3817 0.0
1.01637 -57.2636 0.0
1.70602 -60.8861 0.0
8.62189 -56.7175 0.0
9.03014 -56.0697 0.0
8.96472 -54.7253 0.0
7.59512 -54.8058 0.0
12.7057 -3.59346 0.0
7.4736 -1.87105 0.0
5.82147 -6.10411 0.0
6.26504 -8.60952 0.0
17.4196 -2.39674 0.0
22.148 -4.8604 0.0
22.5047 1.25623 0.0
21.4788 1.62394 0.0
19.2093 1.40507 0.0
27.7046 -11.0524 0.0
29.296 -6.82171 0.0
23.9588 -8.36998 0.0
23.5718 -11.5674 0.0
24.1939 -12.1332 0.0
27.0766 -11.5857 0.0
29.0899 45.6084 0.0
28.9988 46.4533 0.0
26.4537 49.1422 0.0
19.4759 49.9238 0.0
18.3536 48.7487 0.0
20.9132 47.0452 0.0
22.2719 -46.5053 0.0
20.3452 -43.1131 0.0
16.2777 -45.7032 0.0
16.0869 -47.8492 0.0
-1.66958 15.5327 0.0
-2.26109 16.75 0.0
-3.51577 17.3656 0.0
-5.85956 16.8524 0.0
-9.95818 10.813 0.0
-9.46362 9.72849 0.0
57.0542 3.32589 0.0
57.3541 3.17345 0.0
58.8293 3.03206 0.0
59.4043 4.5036 0.0
59.6932 8.39431 0.0
57.5834 11.7057 0.0
57.3665 11.8406 0.0
-27.8348 3.65765 0.0
-28.3331 3.34755 0.0
-29.0838 -1.85824 0.0
-28.3778 -2.09944 0.0
-24.022 -2.5824 0.0
-23.7052 -1.83755 0.0
-24.4449 0.163742 0.0
-4.99261 3.21842 0.0
-5.50652 0.531762 0.0
-0.830805 -2.74939 0.0
-0.646393 -2.55806 0.0
-0.0914599 -0.465581 0.0
-2.11642 2.80125 0.0
-3.33689 3.49898 0.0
20.6407 12.4456 0.0
20.3913 12.5132 0.0
17.2801 9.72991 0.0
17.06 9.28157 0.0
16.7891 8.49267 0.0
18.5943 2.96586 0.0
19.1056 2.24293 0.0
21.3751 2.46181 0.0
-16.7811 43.9272 0.0
-15.7292 43.3446 0.0
-8.62117 48.3054 0.0
-9.44718 50.0378 0.0
-11.5569 50.275 0.0
-12.2117 50.1387 0.0
-17.8694 -38.1641 0.0
-17.1191 -37.7531 0.0
-14.0381 -33.4834 0.0
-16.2441 -31.7073 0.0
-20.1979 -33.7116 0.0
31.4707 36.6842 0.0
32.2475 36.105 0.0
37.628 34.3177 0.0
38.9981 35.2767 0.0
39.066 35.6926 0.0
35.0349 38.9542 0.0
-14.4531 34.7615 0.0
-18.4735 31.8758 0.0
-18.1296 28.4252 0.0
-14.6492 27.3016 0.0
-13.5783 28.1749 0.0
32.5234 -2.56 0.0
33.4238 -3.47717 0.0
40.043 -1.09944 0.0
40.2714 2.70921 0.0
36.5077 0.498312 0.0
41.7885 -30.3487 0.0
41.652 -33.0268 0.0
42.1296 -34.2015 0.0
42.5499 -34.2763 0.0
44.0493 -34.1392 0.0
47.6612 -30.1907 0.0
-8.63229 50.3673 0.0
-7.80628 48.6349 0.0
-6.93182 47.8465 0.0
0.59933 49.9677 0.0
0.613946 50.3952 0.0
-4.1043 53.6091 0.0
-26.0675 31.6731 0.0
-25.9867 30.7881 0.0
-23.8542 23.4657 0.0
-22.5651 23.4226 0.0
-20.6315 26.517 0.0
-38.4718 -41.8443 0.0
-35.5499 -40.9324 0.0
-35.361 -38.9546 0.0
-36.3373 -37.5428 0.0
-37.8835 -35.9049 0.0
-40.6412 -36.5032 0.0
1.70107 49.6835 0.0
5.92126 47.7203 0.0
9.77527 46.2197 0.0
7.66648 50.7162 0.0
4.39506 52.0106 0.0
1.62425 50.2847 0.0
1.60964 49.8572 0.0
36.6237 1.00681 0.0
40.3874 3.21771 0.0
41.0716 4.62677 0.0
40.6578 6.06509 0.0
38.1267 6.90394 0.0
35.7262 6.23805 0.0
-39.3557 -17.921 0.0
-39.6048 -15.369 0.0
-44.4495 -17.0396 0.0
-43.2442 -21.2019 0.0
-8.5423 -63.6463 0.0
-7.47152 -63.7914 0.0
[...]
<CellData Scalars="cell variable 4" Vectors="cell vector">
<DataArray type="Float64" NumberOfComponents="3" Name="cell vector" format="ascii">
0 0 0
0 0 0
0 0 0
0 0 0
0 0 0
0 0 0
0 0 0
0 0 0
0 0 0
0 0 0
0 0 0
0 0 0
0 0 0
0 0 0
0 0 0
0 0 0
0 0 0
0 0 0
0 0 0
0 0 0
0 0 0
0 0 0
0 0 0
0 0 0
0 0 0
0 0 0
0 0 0
0 0 0
0 0 0
0 0 0
0 0 0
0 0 0
0 0 0
0 0 0
0 0 0
0 0 0
0 0 0
0 0 0
0 0 0
0 0 0
0 0 0
0 0 0
0 0 0
0 0 0
0 0 0
0 0 0
0 0 0
0 0 0
0 0 0
0 0 0
0 0 0
0 0 0
0 0 0
0 0 0
0 0 0
0 0 0
0 0 0
0 0 0
0 0 0
0 0 0
0 0 0
0 0 0
0 0 0
0 0 0
0 0 0
0 0 0
0 0 0
0 0 0
0 0 0
0 0 0
0 0 0
0 0 0
0 0 0
0 0 0
0 0 0
0 0 0
0 0 0
0 0 0
0 0 0
0 0 0
0 0 0
0 0 0
0 0 0
0 0 0
0 0 0
0 0 0
0 0 0
0 0 0
0 0 0
0 0 0
0 0 0
0 0 0
0 0 0
0 0 0
0 0 0
0 0 0
0 0 0
0 0 0
0 0 0
0 0 0
0 0 0
0 0 0
0 0 0
0 0 0
0 0 0
0 0 0
0 0 0
0 0 0
0 0 0
0 0 0
0 0 0
0 0 0
0 0 0
0 0 0
0 0 0
0 0 0
0 0 0
0 0 0
0 0 0
0 0 0
0 0 0
0 0 0
0 0 0
0 0 0
0 0 0
0 0 0
0 0 0
0 0 0
0 0 0
0 0 0
0 0 0
0 0 0
0 0 0
0 0 0
0 0 0
0 0 0
0 0 0
0 0 0
0 0 0
0 0 0
0 0 0
0 0 0
0 0 0
0 0 0
0 0 0
0 0 0
0 0 0
0 0 0
0 0 0
0 0 0
0 0 0
0 0 0
0 0 0
0 0 0
0 0 0
0 0 0
0 0 0
0 0 0
0 0 0
0 0 0
0 0 0
0 0 0
0 0 0
0 0 0
0 0 0
0 0 0
0 0 0
0 0 0
0 0 0
0 0 0
0 0 0
0 0 0
0 0 0
0 0 0
0 0 0
0 0 0
0 0 0
0 0 0
0 0 0
0 0 0
0 0 0
0 0 0
0 0 0
0 0 0
0 0 0
0 0 0
0 0 0
0 0 0
0 0 0
0 0 0
0 0 0
0 0 0
0 0 0
0 0 0
0 0 0
0 0 0
0 0 0
0 0 0
0 0 0
0 0 0
0 0 0
0 0 0
0 0 0
0 0 0
0 0 0
0 0 0
0 0 0
0 0 0
0 0 0
0 0 0
0 0 0
0 0 0
0 0 0
0 0 0
0 0 0
0 0 0
0 0 0
0 0 0
0 0 0
0 0 0
0 0 0
0 0 0
0 0 0
0 0 0
0 0 0
0 0 0
0 0 0
0 0 0
0 0 0
0 0 0
0 0 0
0 0 0
0 0 0
0 0 0
0 0 0
0 0 0
0 0 0
0 0 0
0 0 0
0 0 0
0 0 0
0 0 0
0 0 0
0 0 0
0 0 0
0 0 0
0 0 0
0 0 0
0 0 0
0 0 0
0 0 0
0 0 0
0 0 0
0 0 0
0 0 0
0 0 0
0 0 0
0 0 0
0 0 0
0 0 0
0 0 0
0 0 0
0 0 0
0 0 0
0 0 0
0 0 0
0 0 0
0 0 0
0 0 0
0 0 0
0 0 0
0 0 0
0 0 0
0 0 0
0 0 0
0 0 0
0 0 0
0 0 0
0 0 0
0 0 0
0 0 0
0 0 0
0 0 0
0 0 0
0 0 0
0 0 0
0 0 0
0 0 0
0 0 0
0 0 0
0 0 0
0 0 0
0 0 0
0 0 0
0 0 0
0 0 0
0 0 0
0 0 0
0 0 0
0 0 0
0 0 0
0 0 0
0 0 0
0 0 0
0 0 0
0 0 0
0 0 0
0 0 0
0 0 0
0 0 0
0 0 0
0 0 0
0 0 0
0 0 0
0 0 0
0 0 0
0 0 0
0 0 0
0 0 0
0 0 0
0 0 0
0 0 0
0 0 0
0 0 0
0 0 0
0 0 0
0 0 0
0 0 0
0 0 0
0 0 0
0 0 0
0 0 0
0 0 0
0 0 0
0 0 0
0 0 0
0 0 0
0 0 0
0 0 0
0 0 0
0 0 0
0 0 0
0 0 0
0 0 0
0 0 0
0 0 0
0 0 0
0 0 0
0 0 0
0 0 0
0 0 0
0 0 0
0 0 0
0 0 0
0 0 0
0 0 0
0 0 0
0 0 0
0 0 0
0 0 0
0 0 0
0 0 0
0 0 0
0 0 0
0 0 0
0 0 0
0 0 0
0 0 0
0 0 0
0 0 0
0 0 0
0 0 0
0 0 0
0 0 0
0 0 0
0 0 0
0 0 0
0 0 0
0 0 0
0 0 0
0 0 0
0 0 0
0 0 0
0 0 0
0 0 0
0 0 0
0 0 0
0 0 0
0 0 0
0 0 0
0 0 0
0 0 0
0 0 0
0 0 0
0 0 0
0 0 0
0 0 0
0 0 0
0 0 0
0 0 0
0 0 0
0 0 0
0 0 0
0 0 0
0 0 0
0 0 0
0 0 0
0 0 0
</DataArray>
<DataArray type="Float64" Name="cell vector length" format="ascii">
0 0 0 0 0 0 0 0 0 0 0 0 0 0 0 0 0 0 0 0 0 0 0 0 0 0 0 0 0 0 0 0 0 0 0 0 0 0 0 0 0 0 0 0 0 0 0 0 0 0 0 0 0 0 0 0 0 0 0 0 0 0 0 0 0 0 0 0 0 0 0 0 0 0 0 0 0 0 0 0 0 0 0 0 0 0 0 0 0 0 0 0 0 0 0 0 0 0 0 0 0 0 0 0 0 0 0 0 0 0 0 0 0 0 0 0 0 0 0 0 0 0 0 0 0 0 0 0 0 0 0 0 0 0 0 0 0 0 0 0 0 0 0 0 0 0 0 0 0 0 0 0 0 0 0 0 0 0 0 0 0 0 0 0 0 0 0 0 0 0 0 0 0 0 0 0 0 0 0 0 0 0 0 0 0 0 0 0 0 0 0 0 0 0 0 0 0 0 0 0 0 0 0 0 0 0 0 0 0 0 0 0 0 0 0 0 0 0 0 0 0 0 0 0 0 0 0 0 0 0 0 0 0 0 0 0 0 0 0 0 0 0 0 0 0 0 0 0 0 0 0 0 0 0 0 0 0 0 0 0 0 0 0 0 0 0 0 0 0 0 0 0 0 0 0 0 0 0 0 0 0 0 0 0 0 0 0 0 0 0 0 0 0 0 0 0 0 0 0 0 0 0 0 0 0 0 0 0 0 0 0 0 0 0 0 0 0 0 0 0 0 0 0 0 0 0 0 0 0 0 0 0 0 0 0 0 0 0 0 0 0 0 0 0 0 0 0 0 0 0 0 0 0 0 0 0 0 0 0 0 0 0 0 0 0 0 0 0 0 0 0 0 0 0 0 0 0 0 0 0 0 0 0 0 0 0 0 0 0 0 0 0 0 0 0 0 0 0 0 0 0 0 0 0 0 0 0 0 
</DataArray>
<DataArray type="Float64" Name="cell variable 4" format="ascii">
0.316217 0.000510187 6.16323e-05 1.07467 0.249242 0.0032488 0.542818 0.94865 0.000319359 0.000137838 0.23011 0.479217 0.23011 1.04461 0.573608 0.000586701 0.334198 0.0032488 0.573608 0.161465 0.0032488 0.99432 0.511974 0.511974 0.000425284 0.495708 0.393381 0.00403603 0.0824302 0.163146 0.332003 0.626025 0.980966 3.42138e-05 0.437452 0.161465 0.36504 0.184973 0.00760007 0.313432 0.252014 0.179448 0.187543 0.179448 0.000160982 0.000319359 1.11547 0.434405 0.000705084 0.657465 0.848855 0.23011 0.442722 0.33356 0.673042 0.136507 1.06245 0.000237451 1.11547 0.912892 0.573608 0.161465 0.187543 1.07467 0.0032488 0.542818 1.12037 0.848855 0.130161 0.393247 0.00370628 0.503886 0.45141 0.118662 0.0976075 0.371127 0.000116047 0.0505895 0.45141 0.23011 5.26566e-05 0.00103121 0.495708 0.0032488 0.118662 4.61276e-06 0.0824302 1.10185 1.14226 0.371127 0.184973 0.708918 5.26566e-05 0.334198 4.42555e-05 0.00273317 0.118662 0.919422 0.00103121 0.163146 0.503886 1.04461 0.249242 0.313432 0.631062 0.919422 0.479217 0.0978407 0.434405 0.912892 0.542818 0.00370628 0.000157331 0.673042 0.184059 0.334198 0.542818 6.16323e-05 0.000116047 0.789941 0.00403603 0.153908 0.399988 0.343308 0.393381 0.000425284 0.179448 0.573608 0.99432 0.000705084 0.514292 0.153908 0.789941 0.000705084 0.66381 0.136507 0.50937 0.000160982 1.04461 0.0505895 0.184973 1.00681 1.12037 0.393247 0.187543 1.61534e-05 0.66381 0.99432 0.32239 8.68069e-05 0.0773391 0.980966 0.00151096 0.919422 1.00681 0.161465 0.23011 0.790107 0.542818 0.0032488 3.42138e-05 0.94865 0.848855 0.136507 0.187543 0.763876 0.657465 0.0505895 0.184973 0.36504 0.27464 0.184973 0.00403603 0.371127 0.163146 0.313432 1.00681 1.00681 0.130161 0.0824302 1.12037 0.179448 0.00760007 0.000331293 0.00103121 0.437452 0.657465 1.11547 0.313432 0.136507 0.23011 0.0646441 1.07467 5.26566e-05 0.50937 0.000209614 0.94865 0.0773391 0.8063 4.18495e-05 0.790107 0.393247 0.161465 0.657465 0.631062 0.50937 0.45141 0.00760007 8.68069e-05 0.442722 0.514292 0.000157331 0.631062 0.495708 0.0773391 0.153908 0.316217 0.136507 0.184973 0.00403603 0.252014 0.316217 0.434405 0.00145277 0.000306373 0.8063 0.000331293 0.332003 0.0978407 0.763876 0.000157331 0.90618 0.27464 0.187543 0.000510187 0.0646441 1.10185 0.479217 0.00370628 0.631062 0.184059 0.187543 0.343308 0.32239 0.000306373 0.399988 0.90618 0.736473 0.153908 0.0032488 0.00760007 0.393247 0.626025 0.36504 0.316217 0.763876 1.10185 0.27464 0.0097703 0.000705084 0.32239 0.514292 0.184059 0.45141 0.36504 0.27464 0.0978407 0.0505895 0.437452 0.919422 0.000319359 0.789941 0.136507 0.542818 0.153908 0.000586701 0.136507 0.631062 0.184973 0.0505895 0.187543 3.42138e-05 0.00370628 0.00103121 0.00103121 0.000157331 0.00760007 0.343308 0.50937 0.0097703 0.0505895 0.23011 0.00151096 0.0978407 0.332003 0.0032488 0.00145277 0.184973 0.66381 0.673042 0.912892 0.790107 0.153908 0.179448 0.0646441 0.118662 0.000160982 0.00145277 0.000510187 0.90618 0.631062 0.542818 1.12037 1.07467 0.912892 0.153908 0.130161 1.11547 0.980966 0.8063 0.0824302 0.32239 0.161465 0.399988 0.332003 0.118662 0.153908 1.14226 0.573608 0.33356 0.163146 0.0824302 0.708918 5.26566e-05 0.626025 0.479217 0.90618 0.495708 0.36504 0.118662 0.542818 0.249242 0.000425284 0.393381 0.000425284 1.06245 0.187543 0.848855 0.33356 0.434405 0.657465 0.573608 0.919422 0.442722 0.399988 0.252014 0.000137838 0.8063 0.00273317 1.14226 0.000237451 0.343308 0.313432 1.23799e-05 0.919422 0.763876 0.00145277 0.313432 0.789941 1.11547 0.000116047 0.442722 0.0773391 1.10185 0.23011 0.790107 0.136507 0.184059 0.673042 0.00370628 0.66381 0.000160982 1.06245 0.514292 0.0976075 0.00151096 0.252014 0.249242 1.14226 0.631062 0.626025 1.04461 0.179448 0.371127 0.334198 8.33062e-06 0.00151096 0.511974 1.06245 0.161465 0.0505895 0.736473 0.0646441 0.000306373 0.511974 0.130161 0.437452 1.11547 
</DataArray>
<DataArray type="Float64" Name="cell variable 5" format="ascii">
0.0909148 0.999974 1 0.00858434 0.138655 0.998946 0.0328244 0.0109898 0.99999 0.999998 0.158855 0.0417277 0.158855 0.00908091 0.0294962 0.999966 0.082177 0.998946 0.0294962 0.277231 0.998946 0.0100133 0.0367488 0.0367488 0.999982 0.0391044 0.0606986 0.998374 0.595425 0.273099 0.0831765 0.0248813 0.0102849 1 0.0496613 0.277231 0.0698059 0.226167 0.994257 0.0923878 0.136034 0.236958 0.221374 0.236958 0.999997 0.99999 0.00797274 0.0503251 0.99995 0.0226112 0.0136882 0.158855 0.0485429 0.0824658 0.021599 0.349234 0.00878122 0.999994 0.00797274 0.0118572 0.0294962 0.277231 0.221374 0.00858434 0.998946 0.0328244 0.00790366 0.0136882 0.371169 0.0607373 0.998628 0.037893 0.0467791 0.415271 0.512105 0.0676886 0.999999 0.796223 0.0467791 0.158855 1 0.999894 0.0391044 0.998946 0.415271 1 0.595425 0.00816951 0.00760594 0.0676886 0.226167 0.0195097 1 0.082177 1 0.999254 0.415271 0.0116913 0.999894 0.273099 0.037893 0.00908091 0.138655 0.0923878 0.0244954 0.0116913 0.0417277 0.510913 0.0503251 0.0118572 0.0328244 0.998628 0.999998 0.021599 0.227907 0.082177 0.0328244 1 0.999999 0.0157727 0.998374 0.296844 0.0588268 0.0782104 0.0606986 0.999982 0.236958 0.0294962 0.0100133 0.99995 0.0364304 0.296844 0.0157727 0.99995 0.0221905 0.349234 0.0371116 0.999997 0.00908091 0.796223 0.226167 0.00976872 0.00790366 0.0607373 0.221374 1 0.0221905 0.0100133 0.0877689 0.999999 0.62573 0.0102849 0.999772 0.0116913 0.00976872 0.277231 0.158855 0.0157662 0.0328244 0.998946 1 0.0109898 0.0136882 0.349234 0.221374 0.016849 0.0226112 0.796223 0.226167 0.0698059 0.117059 0.226167 0.998374 0.0676886 0.273099 0.0923878 0.00976872 0.00976872 0.371169 0.595425 0.00790366 0.236958 0.994257 0.999989 0.999894 0.0496613 0.0226112 0.00797274 0.0923878 0.349234 0.158855 0.705275 0.00858434 1 0.0371116 0.999996 0.0109898 0.62573 0.0151488 1 0.0157662 0.0607373 0.277231 0.0226112 0.0244954 0.0371116 0.0467791 0.994257 0.999999 0.0485429 0.0364304 0.999998 0.0244954 0.0391044 0.62573 0.296844 0.0909148 0.349234 0.226167 0.998374 0.136034 0.0909148 0.0503251 0.999789 0.999991 0.0151488 0.999989 0.0831765 0.510913 0.016849 0.999998 0.0120314 0.117059 0.221374 0.999974 0.705275 0.00816951 0.0417277 0.998628 0.0244954 0.227907 0.221374 0.0782104 0.0877689 0.999991 0.0588268 0.0120314 0.0181031 0.296844 0.998946 0.994257 0.0607373 0.0248813 0.0698059 0.0909148 0.016849 0.00816951 0.117059 0.990544 0.99995 0.0877689 0.0364304 0.227907 0.0467791 0.0698059 0.117059 0.510913 0.796223 0.0496613 0.0116913 0.99999 0.0157727 0.349234 0.0328244 0.296844 0.999966 0.349234 0.0244954 0.226167 0.796223 0.221374 1 0.998628 0.999894 0.999894 0.999998 0.994257 0.0782104 0.0371116 0.990544 0.796223 0.158855 0.999772 0.510913 0.0831765 0.998946 0.999789 0.226167 0.0221905 0.021599 0.0118572 0.0157662 0.296844 0.236958 0.705275 0.415271 0.999997 0.999789 0.999974 0.0120314 0.0244954 0.0328244 0.00790366 0.00858434 0.0118572 0.296844 0.371169 0.00797274 0.0102849 0.0151488 0.595425 0.0877689 0.277231 0.0588268 0.0831765 0.415271 0.296844 0.00760594 0.0294962 0.0824658 0.273099 0.595425 0.0195097 1 0.0248813 0.0417277 0.0120314 0.0391044 0.0698059 0.415271 0.0328244 0.138655 0.999982 0.0606986 0.999982 0.00878122 0.221374 0.0136882 0.0824658 0.0503251 0.0226112 0.0294962 0.0116913 0.0485429 0.0588268 0.136034 0.999998 0.0151488 0.999254 0.00760594 0.999994 0.0782104 0.0923878 1 0.0116913 0.016849 0.999789 0.0923878 0.0157727 0.00797274 0.999999 0.0485429 0.62573 0.00816951 0.158855 0.0157662 0.349234 0.227907 0.021599 0.998628 0.0221905 0.999997 0.00878122 0.0364304 0.512105 0.999772 0.136034 0.138655 0.00760594 0.0244954 0.0248813 0.00908091 0.236958 0.0676886 0.082177 1 0.999772 0.0367488 0.00878122 0.277231 0.796223 0.0181031 0.705275 0.999991 0.0367488 0.371169 0.0496613 0.00797274 
</DataArray>
<DataArray type="Float64" Name="cell variable 6" format="ascii">
0.0038835 1.00883 1.00913 5.3719e-06 0.0566856 1.00681 0.000251962 1.10661e-05 1.00896 1.00908 0.0671729 0.00051123 0.0671729 6.33494e-06 0.000187165 1.00878 0.00576492 1.00681 0.000187165 0.298329 1.00681 8.43313e-06 0.00035504 0.00035504 1.00889 0.000410215 0.00151522 1.00605 0.752638 0.294057 0.00364689 0.000115922 9.11938e-06 1.00915 0.000885689 0.298329 0.0019794 0.208208 1.00277 0.00439847 0.0441278 0.235078 0.185318 0.235078 1.00907 1.00896 4.32387e-06 0.000857904 1.0087 8.84138e-05 2.09522e-05 0.0671729 0.000858618 0.00403961 7.76673e-05 0.432355 5.74138e-06 1.00902 4.32387e-06 1.38076e-05 0.000187165 0.298329 0.185318 5.3719e-06 1.00681 0.000251962 4.21468e-06 2.09522e-05 0.477444 0.00202135 1.00642 0.000380196 0.000696942 0.533485 0.67289 0.0019189 1.0091 0.900072 0.000696942 0.0671729 1.00914 1.00849 0.000410215 1.00681 0.533485 1.00917 0.752638 4.64493e-06 3.76475e-06 0.0019189 0.208208 5.81379e-05 1.00914 0.00576492 1.00914 1.00716 0.533485 1.32528e-05 1.00849 0.294057 0.000380196 6.33494e-06 0.0566856 0.00439847 0.000110922 1.32528e-05 0.00051123 0.674122 0.000857904 1.38076e-05 0.000251962 1.00642 1.00907 7.76673e-05 0.235443 0.00576492 0.000251962 1.00913 1.0091 3.156e-05 1.00605 0.3398 0.00127682 0.00310284 0.00151522 1.00889 0.235078 0.000187165 8.43313e-06 1.0087 0.000349016 0.3398 3.156e-05 1.0087 8.3838e-05 0.432355 0.000394946 1.00907 6.33494e-06 0.900072 0.208208 7.8448e-06 4.21468e-06 0.00202135 0.185318 1.00916 8.3838e-05 8.43313e-06 0.00628005 1.00912 0.780596 9.11938e-06 1.00816 1.32528e-05 7.8448e-06 0.298329 0.0671729 3.15261e-05 0.000251962 1.00681 1.00915 1.10661e-05 2.09522e-05 0.432355 0.185318 3.81646e-05 8.84138e-05 0.900072 0.208208 0.0019794 0.02163 0.208208 1.00605 0.0019189 0.294057 0.00439847 7.8448e-06 7.8448e-06 0.477444 0.752638 4.21468e-06 0.235078 1.00277 1.00895 1.00849 0.000885689 8.84138e-05 4.32387e-06 0.00439847 0.432355 0.0671729 0.841792 5.3719e-06 1.00914 0.000394946 1.00904 1.10661e-05 0.780596 2.80904e-05 1.00915 3.15261e-05 0.00202135 0.298329 8.84138e-05 0.000110922 0.000394946 0.000696942 1.00277 1.00912 0.000858618 0.000349016 1.00907 0.000110922 0.000410215 0.780596 0.3398 0.0038835 0.432355 0.208208 1.00605 0.0441278 0.0038835 0.000857904 1.00814 1.00897 2.80904e-05 1.00895 0.00364689 0.674122 3.81646e-05 1.00907 1.4406e-05 0.02163 0.185318 1.00883 0.841792 4.64493e-06 0.00051123 1.00642 0.000110922 0.235443 0.185318 0.00310284 0.00628005 1.00897 0.00127682 1.4406e-05 4.69278e-05 0.3398 1.00681 1.00277 0.00202135 0.000115922 0.0019794 0.0038835 3.81646e-05 4.64493e-06 0.02163 1.00014 1.0087 0.00628005 0.000349016 0.235443 0.000696942 0.0019794 0.02163 0.674122 0.900072 0.000885689 1.32528e-05 1.00896 3.156e-05 0.432355 0.000251962 0.3398 1.00878 0.432355 0.000110922 0.208208 0.900072 0.185318 1.00915 1.00642 1.00849 1.00849 1.00907 1.00277 0.00310284 0.000394946 1.00014 0.900072 0.0671729 1.00816 0.674122 0.00364689 1.00681 1.00814 0.208208 8.3838e-05 7.76673e-05 1.38076e-05 3.15261e-05 0.3398 0.235078 0.841792 0.533485 1.00907 1.00814 1.00883 1.4406e-05 0.000110922 0.000251962 4.21468e-06 5.3719e-06 1.38076e-05 0.3398 0.477444 4.32387e-06 9.11938e-06 2.80904e-05 0.752638 0.00628005 0.298329 0.00127682 0.00364689 0.533485 0.3398 3.76475e-06 0.000187165 0.00403961 0.294057 0.752638 5.81379e-05 1.00914 0.000115922 0.00051123 1.4406e-05 0.000410215 0.0019794 0.533485 0.000251962 0.0566856 1.00889 0.00151522 1.00889 5.74138e-06 0.185318 2.09522e-05 0.00403961 0.000857904 8.84138e-05 0.000187165 1.32528e-05 0.000858618 0.00127682 0.0441278 1.00908 2.80904e-05 1.00716 3.76475e-06 1.00902 0.00310284 0.00439847 1.00917 1.32528e-05 3.81646e-05 1.00814 0.00439847 3.156e-05 4.32387e-06 1.0091 0.000858618 0.780596 4.64493e-06 0.0671729 3.15261e-05 0.432355 0.235443 7.76673e-05 1.00642 8.3838e-05 1.00907 5.74138e-06 0.000349016 0.67289 1.00816 0.0441278 0.0566856 3.76475e-06 0.000110922 0.000115922 6.33494e-06 0.235078 0.0019189 0.00576492 1.00917 1.00816 0.00035504 5.74138e-06 0.298329 0.900072 4.69278e-05 0.841792 1.00897 0.00035504 0.477444 0.000885689 4.32387e-06 
</DataArray>
<DataArray type="Float64" Name="cell variable 7" format="ascii">
0.357275 0.805214 0.804393 0.0863829 0.413855 0.731648 0.214434 0.109939 0.786592 0.818915 0.46057 0.24144 0.46057 0.091923 0.203114 0.789622 0.334908 0.731648 0.203114 0.543895 0.731648 0.10127 0.2268 0.2268 0.777768 0.233945 0.290041 0.781706 0.652741 0.531783 0.340125 0.185875 0.103782 0.881455 0.262734 0.543895 0.311423 0.488241 0.695937 0.360012 0.422896 0.481302 0.511928 0.481302 0.804465 0.786592 0.0788486 0.264653 0.790771 0.176526 0.129973 0.46057 0.259721 0.337987 0.172124 0.58017 0.0886341 0.815305 0.0788486 0.116913 0.203114 0.543895 0.511928 0.0863829 0.731648 0.214434 0.0779382 0.129973 0.557964 0.288948 0.736426 0.230311 0.255368 0.633332 0.58928 0.306453 0.821805 0.667622 0.255368 0.46057 0.808066 0.74517 0.233945 0.731648 0.633332 0.89681 0.652741 0.0813708 0.0738515 0.306453 0.488241 0.162493 0.808066 0.334908 0.85435 0.786302 0.633332 0.115625 0.74517 0.531783 0.230311 0.091923 0.413855 0.360012 0.184332 0.115625 0.24144 0.570965 0.264653 0.116913 0.214434 0.736426 0.802201 0.172124 0.426674 0.334908 0.214434 0.804393 0.821805 0.142859 0.781706 0.544906 0.285858 0.329428 0.290041 0.777768 0.481302 0.203114 0.10127 0.790771 0.225806 0.544906 0.142859 0.790771 0.174715 0.58017 0.227704 0.804465 0.091923 0.667622 0.488241 0.0989326 0.0779382 0.288948 0.511928 0.855098 0.174715 0.10127 0.347352 0.812727 0.646851 0.103782 0.723507 0.115625 0.0989326 0.543895 0.46057 0.142821 0.214434 0.731648 0.881455 0.109939 0.129973 0.58017 0.511928 0.148901 0.176526 0.667622 0.488241 0.311423 0.399197 0.488241 0.781706 0.306453 0.531783 0.360012 0.0989326 0.0989326 0.557964 0.652741 0.0779382 0.481302 0.695937 0.823381 0.74517 0.262734 0.176526 0.0788486 0.360012 0.58017 0.46057 0.663687 0.0863829 0.808066 0.227704 0.803638 0.109939 0.646851 0.139181 0.828165 0.142821 0.288948 0.543895 0.176526 0.184332 0.227704 0.255368 0.695937 0.812727 0.259721 0.225806 0.802201 0.184332 0.233945 0.646851 0.544906 0.357275 0.58017 0.488241 0.781706 0.422896 0.357275 0.264653 0.822606 0.774006 0.139181 0.823381 0.340125 0.570965 0.148901 0.802201 0.118245 0.399197 0.511928 0.805214 0.663687 0.0813708 0.24144 0.736426 0.184332 0.426674 0.511928 0.329428 0.347352 0.774006 0.285858 0.118245 0.15552 0.544906 0.731648 0.695937 0.288948 0.185875 0.311423 0.357275 0.148901 0.0813708 0.399197 0.724735 0.790771 0.347352 0.225806 0.426674 0.255368 0.311423 0.399197 0.570965 0.667622 0.262734 0.115625 0.786592 0.142859 0.58017 0.214434 0.544906 0.789622 0.58017 0.184332 0.488241 0.667622 0.511928 0.881455 0.736426 0.74517 0.74517 0.802201 0.695937 0.329428 0.227704 0.724735 0.667622 0.46057 0.723507 0.570965 0.340125 0.731648 0.822606 0.488241 0.174715 0.172124 0.116913 0.142821 0.544906 0.481302 0.663687 0.633332 0.804465 0.822606 0.805214 0.118245 0.184332 0.214434 0.0779382 0.0863829 0.116913 0.544906 0.557964 0.0788486 0.103782 0.139181 0.652741 0.347352 0.543895 0.285858 0.340125 0.633332 0.544906 0.0738515 0.203114 0.337987 0.531783 0.652741 0.162493 0.808066 0.185875 0.24144 0.118245 0.233945 0.311423 0.633332 0.214434 0.413855 0.777768 0.290041 0.777768 0.0886341 0.511928 0.129973 0.337987 0.264653 0.176526 0.203114 0.115625 0.259721 0.285858 0.422896 0.818915 0.139181 0.786302 0.0738515 0.815305 0.329428 0.360012 0.864126 0.115625 0.148901 0.822606 0.360012 0.142859 0.0788486 0.821805 0.259721 0.646851 0.0813708 0.46057 0.142821 0.58017 0.426674 0.172124 0.736426 0.174715 0.804465 0.0886341 0.225806 0.58928 0.723507 0.422896 0.413855 0.0738515 0.184332 0.185875 0.091923 0.481302 0.306453 0.334908 0.869271 0.723507 0.2268 0.0886341 0.543895 0.667622 0.15552 0.663687 0.774006 0.2268 0.557964 0.262734 0.0788486 
</DataArray>
<DataArray type="Float64" Name="cell variable 8" format="ascii">