<VTKFile type="UnstructuredGrid" version="0.1">
<UnstructuredGrid>
<Piece  NumberOfPoints="    2496" NumberOfCells="     419">
<Points>
<DataArray type="Float64" NumberOfComponents="3" format="ascii">
19.546 -17.4075 0.0
19.9793 -14.5805 0.0
14.5619 -16.7205 0.0
16.6666 -20.0929 0.0
17.836 -20.0041 0.0
23.9409 -25.1141 0.0
23.747 -24.226 0.0
19.9934 -24.0224 0.0
16.2968 -28.3453 0.0
18.4659 -29.7123 0.0
30.3586 -41.6431 0.0
32.6447 -38.5062 0.0
28.6752 -36.9465 0.0
27.6614 -37.6997 0.0
26.8249 -41.8374 0.0
-48.0504 20.7428 0.0
-44.4454 20.28 0.0
-42.0092 23.5017 0.0
-41.8041 24.7446 0.0
-45.5749 27.8742 0.0
-46.9105 26.6596 0.0
-48.1701 22.4607 0.0
25.6618 -3.76662 0.0
26.4042 -5.10441 0.0
30.2268 -3.4331 0.0
30.848 1.23675 0.0
30.3707 2.05703 0.0
29.9041 2.10478 0.0
31.3232 1.25717 0.0
30.702 -3.41268 0.0
33.6849 -5.52934 0.0
35.6291 -2.76672 0.0
36.3102 -0.707599 0.0
35.6612 1.1038 0.0
7.07875 42.0663 0.0
7.47892 41.688 0.0
10.9473 40.7107 0.0
13.6624 42.6 0.0
15.0182 45.563 0.0
13.7322 46.5892 0.0
13.3516 46.627 0.0
-20.2144 -51.8132 0.0
-24.9321 -49.9959 0.0
-28.8057 -52.3837 0.0
-24.7621 -55.2036 0.0
-14.1939 -30.9979 0.0
-16.4393 -33.6124 0.0
-13.9862 -37.2275 0.0
-9.64118 -37.6028 0.0
-9.20399 -35.73 0.0
-27.9484 26.5466 0.0
-29.0531 25.0842 0.0
-29.1439 24.22 0.0
-25.1427 21.5305 0.0
-21.4765 24.9931 0.0
-21.7927 25.5069 0.0
-49.1421 -32.8489 0.0
-47.168 -28.7832 0.0
-53.7821 -26.4005 0.0
-52.4335 -29.8365 0.0
-16.967 -12.8989 0.0
-17.7805 -8.08636 0.0
-22.8244 -6.38016 0.0
-23.3998 -6.97963 0.0
-23.9467 -9.93899 0.0
-21.3603 -11.5631 0.0
-22.8546 31.5443 0.0
-22.0791 32.1834 0.0
-23.0561 37.0081 0.0
-25.3562 36.6803 0.0
-27.8119 32.2936 0.0
-26.3646 30.6667 0.0
0.270951 -5.67997 0.0
-1.54821 -3.7761 0.0
-5.36547 -3.68052 0.0
-6.62778 -6.64709 0.0
-4.26528 -8.00166 0.0
25.6405 -48.379 0.0
28.9785 -47.2518 0.0
25.6822 -43.1472 0.0
24.1724 -44.0425 0.0
22.3476 -46.2416 0.0
22.5553 -46.5945 0.0
-30.8741 -7.40089 0.0
-36.0775 -11.5232 0.0
-33.9073 -15.022 0.0
-32.9936 -15.028 0.0
-29.5773 -11.9028 0.0
-11.8124 20.0719 0.0
-9.37229 21.8608 0.0
-8.52805 24.442 0.0
-10.4834 25.6631 0.0
-11.7467 26.0939 0.0
-15.8126 21.0726 0.0
53.6304 -11.3485 0.0
53.6525 -8.57284 0.0
52.1689 -6.26011 0.0
50.7711 -6.79674 0.0
48.5203 -9.61587 0.0
48.4726 -10.6758 0.0
53.5763 -11.6542 0.0
-2.10408 58.783 0.0
2.35725 57.6305 0.0
4.70762 59.463 0.0
3.44765 60.3561 0.0
-3.32803 60.7356 0.0
-4.88605 59.9769 0.0
10.0031 25.7986 0.0
11.6761 23.1415 0.0
15.5924 20.5842 0.0
18.9683 22.6806 0.0
17.9277 24.5744 0.0
-41.7696 5.71328 0.0
-40.8254 4.79165 0.0
-38.766 8.61936 0.0
-40.8149 15.2791 0.0
-41.4032 15.0392 0.0
-41.8106 32.8118 0.0
-42.4977 32.9037 0.0
-45.318 28.396 0.0
-41.5472 25.2664 0.0
-40.7539 26.3232 0.0
13.4091 15.4886 0.0
14.3326 13.6981 0.0
19.8326 14.4901 0.0
17.5849 17.3633 0.0
15.8092 18.8117 0.0
38.5805 -33.2716 0.0
39.638 -33.9727 0.0
47.1193 -26.6165 0.0
47.1646 -24.6729 0.0
45.3046 -24.0982 0.0
-10.9163 46.7801 0.0
-9.69188 47.7365 0.0
-11.5335 52.3087 0.0
-11.7386 52.8136 0.0
-14.0704 52.7637 0.0
-15.1367 52.2791 0.0
-15.8133 51.6903 0.0
8.57596 -50.4382 0.0
8.91051 -50.1124 0.0
5.61519 -47.162 0.0
1.78779 -47.5062 0.0
0.27752 -51.2612 0.0
-17.0863 10.2804 0.0
-16.1469 12.5256 0.0
-19.8674 16.1328 0.0
-23.3074 13.0295 0.0
-22.7448 10.0328 0.0
57.9297 -15.4211 0.0
56.4103 -14.8897 0.0
53.1051 -21.1443 0.0
54.1262 -21.9649 0.0
56.9768 -20.6126 0.0
-50.4226 11.7219 0.0
-45.2846 13.2283 0.0
-49.7117 17.5669 0.0
-51.2653 15.3231 0.0
19.5888 -23.8001 0.0
17.6866 -20.6969 0.0
16.5172 -20.7857 0.0
13.0886 -22.8719 0.0
13.1389 -25.4616 0.0
14.5529 -28.1275 0.0
15.5235 -28.2284 0.0
15.8922 -28.123 0.0
15.7865 52.5933 0.0
19.411 52.2138 0.0
14.963 57.2625 0.0
10.7884 57.7684 0.0
11.8793 55.0483 0.0
12.4414 54.1402 0.0
6.38695 18.723 0.0
6.28982 18.8443 0.0
2.36936 20.4161 0.0
-2.09479 17.7769 0.0
-1.49504 16.6702 0.0
7.15832 17.5642 0.0
5.71162 12.99 0.0
4.01892 13.6625 0.0
-1.0079 10.2498 0.0
1.1581 9.38404 0.0
1.8382 9.10142 0.0
4.1252 8.91914 0.0
5.81241 12.188 0.0
-42.9472 -36.6924 0.0
-42.0321 -35.18 0.0
-43.4604 -31.6306 0.0
-46.1729 -28.9419 0.0
-46.6608 -29.1724 0.0
-48.635 -33.2381 0.0
-45.3697 -36.7778 0.0
-17.7409 -18.0571 0.0
-14.2463 -21.9028 0.0
-9.85032 -18.6574 0.0
-11.4727 -16.691 0.0
-14.933 -15.442 0.0
-15.3817 -15.4134 0.0
-16.0093 37.5003 0.0
-13.0515 38.6189 0.0
-11.7063 40.284 0.0
-18.7803 41.487 0.0
-20.144 38.7803 0.0
-53.1168 -11.434 0.0
-53.0669 -11.8948 0.0
-47.6698 -16.8554 0.0
-47.251 -16.6939 0.0
-48.365 -11.7612 0.0
-49.8805 -10.6137 0.0
-51.6201 -9.5125 0.0
-52.7649 -10.846 0.0
-2.90022 -31.9567 0.0
-2.16151 -32.0674 0.0
3.49388 -29.3645 0.0
3.53327 -29.1955 0.0
3.17732 -27.7248 0.0
-1.34202 -26.0207 0.0
-3.62072 -26.4629 0.0
-3.03768 -31.8803 0.0
-27.1636 -13.6527 0.0
-29.2769 -12.3277 0.0
-32.6932 -15.4528 0.0
-28.7682 -20.1531 0.0
36.1737 5.39834 0.0
37.0885 6.0696 0.0
38.4731 12.7105 0.0
35.405 13.5337 0.0
33.7939 9.25832 0.0
20.389 14.5537 0.0
21.1197 13.7951 0.0
25.062 15.746 0.0
23.7504 18.7393 0.0
18.1413 17.4269 0.0
-13.6415 -37.8195 0.0
-14.0368 -38.5627 0.0
-9.22455 -43.8822 0.0
-8.22816 -44.1117 0.0
-6.33038 -43.5468 0.0
-5.81397 -40.6276 0.0
-6.091 -40.2901 0.0
-9.29649 -38.1949 0.0
-16.8709 -33.7525 0.0
-18.2681 -33.0818 0.0
-19.8684 -36.6186 0.0
-16.6719 -38.8242 0.0
-14.813 -38.1107 0.0
-14.4178 -37.3676 0.0
-42.2133 -37.2216 0.0
-41.8175 -37.7073 0.0
-33.4777 -42.0368 0.0
-33.8389 -40.7289 0.0
-35.994 -38.1655 0.0
-41.2981 -35.7093 0.0
15.1752 -29.0739 0.0
14.2046 -28.973 0.0
9.48143 -31.9066 0.0
10.6474 -35.7907 0.0
13.6711 -36.0588 0.0
14.0792 -35.7992 0.0
52.3658 18.714 0.0
51.855 19.0487 0.0
49.5791 18.3162 0.0
49.5444 13.4281 0.0
50.6446 11.1833 0.0
53.0857 11.1743 0.0
-50.2706 11.2314 0.0
-50.1568 7.33944 0.0
-46.8416 5.76707 0.0
-44.9052 8.10358 0.0
-44.5107 12.663 0.0
-45.1326 12.7379 0.0
15.2974 19.527 0.0
15.2569 20.2941 0.0
11.3407 22.8515 0.0
10.7542 22.5895 0.0
7.19054 19.0658 0.0
7.28767 18.9445 0.0
42.3438 36.0826 0.0
43.8827 34.5322 0.0
46.3309 37.105 0.0
44.8016 39.3957 0.0
41.32 41.0286 0.0
41.0906 38.6052 0.0
23.739 -53.5747 0.0
24.4846 -53.9112 0.0
32.7642 -49.6069 0.0
31.1916 -47.4083 0.0
-31.9887 32.4478 0.0
-31.7778 31.2733 0.0
-28.1948 32.5001 0.0
-25.7391 36.8868 0.0
-26.5664 40.6847 0.0
-27.6726 40.563 0.0
-30.7647 -3.79955 0.0
-30.1952 -5.95208 0.0
-24.0552 -6.41172 0.0
-23.4798 -5.81225 0.0
-24.8367 -1.40953 0.0
-26.4543 -0.426114 0.0
-28.2837 -1.55591 0.0
-0.921697 -25.5133 0.0
-0.946741 -25.6128 0.0
3.5726 -27.3169 0.0
7.43618 -22.8899 0.0
6.83847 -22.067 0.0
-0.473241 -24.6982 0.0
-4.02715 27.3192 0.0
-7.90666 24.5822 0.0
-8.7509 22.0011 0.0
-6.3168 21.2122 0.0
-5.06859 22.4027 0.0
-1.95063 26.7191 0.0
1.18379 -47.5316 0.0
-0.210291 -46.9207 0.0
-2.21538 -46.7148 0.0
-5.06116 -51.3596 0.0
-1.67644 -52.4914 0.0
-0.326473 -51.2866 0.0
-54.5305 10.0464 0.0
-54.8197 8.06519 0.0
-52.968 4.54613 0.0
-50.6804 7.36975 0.0
-50.7942 11.2617 0.0
-51.637 14.863 0.0
-53.4355 13.9216 0.0
5.8832 6.63007 0.0
6.5379 6.39642 0.0
10.364 5.42149 0.0
12.3064 8.00577 0.0
10.2689 9.64155 0.0
6.33687 11.9169 0.0
4.64966 8.648 0.0
5.50636 7.1927 0.0
-4.82833 47.9468 0.0
-5.08064 47.7925 0.0
-5.73018 41.9859 0.0
-4.10149 41.3375 0.0
-2.7254 41.02 0.0
-0.784481 42.0688 0.0
3.54038 -6.6631 0.0
8.79265 -4.89015 0.0
8.91794 -2.78525 0.0
8.53574 -2.45957 0.0
4.60964 -0.512856 0.0
11.6874 0.486359 0.0
10.3995 -1.55328 0.0
15.1822 -4.63838 0.0
16.7477 -2.08119 0.0
14.5429 -0.272901 0.0
14.3085 -7.05383 0.0
14.4904 -7.42073 0.0
20.0374 -6.24197 0.0
21.134 -3.56452 0.0
18.5537 -1.83434 0.0
17.1732 -2.37043 0.0
15.6077 -4.92761 0.0
-57.0511 -0.652311 0.0
-55.5218 -0.587009 0.0
-53.0848 -0.182315 0.0
-53.1942 3.44087 0.0
-53.237 3.85861 0.0
-55.0888 7.37768 0.0
-57.3829 5.19979 0.0
-41.6963 -38.0152 0.0
-38.01 -42.2644 0.0
-36.4459 -43.654 0.0
-32.8579 -43.8725 0.0
-33.3564 -42.3446 0.0
-6.54247 6.09005 0.0
-6.1736 4.17316 0.0
0.517824 9.03225 0.0
-1.64818 9.898 0.0
-2.38896 10.1498 0.0
-3.49273 9.55167 0.0
29.5283 28.6928 0.0
27.8302 29.8862 0.0
25.1262 26.1757 0.0
27.2776 23.2331 0.0
29.9135 23.2054 0.0
-16.1141 -5.83549 0.0
-15.218 -5.55689 0.0
-14.3446 -1.8028 0.0
-16.6055 1.88155 0.0
-20.4235 0.665381 0.0
-20.8104 -0.0519019 0.0
-1.61129 -3.27493 0.0
-0.53898 -0.522977 0.0
-2.39148 1.1498 0.0
-3.05115 1.73184 0.0
-6.12129 2.78853 0.0
-7.43027 -0.943655 0.0
-5.42855 -3.17936 0.0
-22.0798 -41.2237 0.0
-22.8364 -44.0777 0.0
-14.6843 -46.352 0.0
-14.4305 -44.6797 0.0
-17.9169 -41.9259 0.0
-42.119 -31.4395 0.0
-42.8166 -31.7696 0.0
-41.3883 -35.319 0.0
-36.0842 -37.7752 0.0
-34.7645 -35.1799 0.0
37.6668 -23.398 0.0
37.5106 -22.4298 0.0
34.5541 -23.5636 0.0
32.0939 -26.2418 0.0
31.0156 -29.9859 0.0
31.7139 -32.8108 0.0
17.4763 28.1934 0.0
20.8044 29.6543 0.0
22.2012 32.7852 0.0
21.1037 34.2135 0.0
19.7762 35.8223 0.0
17.0073 35.4757 0.0
16.0685 29.1565 0.0
48.1285 1.62293 0.0
47.9805 2.58695 0.0
45.2431 3.19041 0.0
43.8785 -1.24282 0.0
44.7546 -6.87686 0.0
46.2795 -7.25299 0.0
60.6591 4.90111 0.0
59.8266 8.74479 0.0
58.7751 11.258 0.0
56.787 12.4947 0.0
56.5192 8.83732 0.0
57.0182 6.60336 0.0
-17.1168 50.9959 0.0
-20.6518 50.2399 0.0
-22.2627 47.7266 0.0
-22.3631 44.7256 0.0
-19.1989 45.2803 0.0
-18.7638 45.5908 0.0
-17.6336 46.4271 0.0
-5.14971 30.9477 0.0
-3.6915 27.859 0.0
-1.61498 27.2589 0.0
0.375433 27.3174 0.0
-0.142965 30.4883 0.0
-2.43877 32.5751 0.0
20.1901 36.3617 0.0
21.5177 34.7528 0.0
26.514 37.8305 0.0
26.5503 38.4599 0.0
22.3193 39.86 0.0
20.3685 37.2781 0.0
-26.9101 -27.0919 0.0
-21.4482 -24.6687 0.0
-21.6215 -23.4774 0.0
-22.9073 -21.7709 0.0
-25.2747 -21.8038 0.0
2.15616 31.2975 0.0
0.51161 30.3838 0.0
1.03001 27.2129 0.0
2.70918 26.2562 0.0
7.9955 27.0901 0.0
9.33317 29.0062 0.0
-0.51624 36.2644 0.0
-0.0548863 36.319 0.0
5.19433 42.066 0.0
4.6783 42.5752 0.0
1.13354 42.3831 0.0
-0.316621 41.6923 0.0
-2.25754 40.6435 0.0
-1.43179 37.2821 0.0
35.8899 -3.45445 0.0
33.9457 -6.21707 0.0
33.8901 -7.90844 0.0
34.8832 -12.0515 0.0
38.8939 -11.6199 0.0
[...]
<CellData Scalars="cell variable 4" Vectors="cell vector">
<DataArray type="Float64" NumberOfComponents="3" Name="cell vector" format="ascii">
0 0 0
0 0 0
0 0 0
0 0 0
0 0 0
0 0 0
0 0 0
0 0 0
0 0 0
0 0 0
0 0 0
0 0 0
0 0 0
0 0 0
0 0 0
0 0 0
0 0 0
0 0 0
0 0 0
0 0 0
0 0 0
0 0 0
0 0 0
0 0 0
0 0 0
0 0 0
0 0 0
0 0 0
0 0 0
0 0 0
0 0 0
0 0 0
0 0 0
0 0 0
0 0 0
0 0 0
0 0 0
0 0 0
0 0 0
0 0 0
0 0 0
0 0 0
0 0 0
0 0 0
0 0 0
0 0 0
0 0 0
0 0 0
0 0 0
0 0 0
0 0 0
0 0 0
0 0 0
0 0 0
0 0 0
0 0 0
0 0 0
0 0 0
0 0 0
0 0 0
0 0 0
0 0 0
0 0 0
0 0 0
0 0 0
0 0 0
0 0 0
0 0 0
0 0 0
0 0 0
0 0 0
0 0 0
0 0 0
0 0 0
0 0 0
0 0 0
0 0 0
0 0 0
0 0 0
0 0 0
0 0 0
0 0 0
0 0 0
0 0 0
0 0 0
0 0 0
0 0 0
0 0 0
0 0 0
0 0 0
0 0 0
0 0 0
0 0 0
0 0 0
0 0 0
0 0 0
0 0 0
0 0 0
0 0 0
0 0 0
0 0 0
0 0 0
0 0 0
0 0 0
0 0 0
0 0 0
0 0 0
0 0 0
0 0 0
0 0 0
0 0 0
0 0 0
0 0 0
0 0 0
0 0 0
0 0 0
0 0 0
0 0 0
0 0 0
0 0 0
0 0 0
0 0 0
0 0 0
0 0 0
0 0 0
0 0 0
0 0 0
0 0 0
0 0 0
0 0 0
0 0 0
0 0 0
0 0 0
0 0 0
0 0 0
0 0 0
0 0 0
0 0 0
0 0 0
0 0 0
0 0 0
0 0 0
0 0 0
0 0 0
0 0 0
0 0 0
0 0 0
0 0 0
0 0 0
0 0 0
0 0 0
0 0 0
0 0 0
0 0 0
0 0 0
0 0 0
0 0 0
0 0 0
0 0 0
0 0 0
0 0 0
0 0 0
0 0 0
0 0 0
0 0 0
0 0 0
0 0 0
0 0 0
0 0 0
0 0 0
0 0 0
0 0 0
0 0 0
0 0 0
0 0 0
0 0 0
0 0 0
0 0 0
0 0 0
0 0 0
0 0 0
0 0 0
0 0 0
0 0 0
0 0 0
0 0 0
0 0 0
0 0 0
0 0 0
0 0 0
0 0 0
0 0 0
0 0 0
0 0 0
0 0 0
0 0 0
0 0 0
0 0 0
0 0 0
0 0 0
0 0 0
0 0 0
0 0 0
0 0 0
0 0 0
0 0 0
0 0 0
0 0 0
0 0 0
0 0 0
0 0 0
0 0 0
0 0 0
0 0 0
0 0 0
0 0 0
0 0 0
0 0 0
0 0 0
0 0 0
0 0 0
0 0 0
0 0 0
0 0 0
0 0 0
0 0 0
0 0 0
0 0 0
0 0 0
0 0 0
0 0 0
0 0 0
0 0 0
0 0 0
0 0 0
0 0 0
0 0 0
0 0 0
0 0 0
0 0 0
0 0 0
0 0 0
0 0 0
0 0 0
0 0 0
0 0 0
0 0 0
0 0 0
0 0 0
0 0 0
0 0 0
0 0 0
0 0 0
0 0 0
0 0 0
0 0 0
0 0 0
0 0 0
0 0 0
0 0 0
0 0 0
0 0 0
0 0 0
0 0 0
0 0 0
0 0 0
0 0 0
0 0 0
0 0 0
0 0 0
0 0 0
0 0 0
0 0 0
0 0 0
0 0 0
0 0 0
0 0 0
0 0 0
0 0 0
0 0 0
0 0 0
0 0 0
0 0 0
0 0 0
0 0 0
0 0 0
0 0 0
0 0 0
0 0 0
0 0 0
0 0 0
0 0 0
0 0 0
0 0 0
0 0 0
0 0 0
0 0 0
0 0 0
0 0 0
0 0 0
0 0 0
0 0 0
0 0 0
0 0 0
0 0 0
0 0 0
0 0 0
0 0 0
0 0 0
0 0 0
0 0 0
0 0 0
0 0 0
0 0 0
0 0 0
0 0 0
0 0 0
0 0 0
0 0 0
0 0 0
0 0 0
0 0 0
0 0 0
0 0 0
0 0 0
0 0 0
0 0 0
0 0 0
0 0 0
0 0 0
0 0 0
0 0 0
0 0 0
0 0 0
0 0 0
0 0 0
0 0 0
0 0 0
0 0 0
0 0 0
0 0 0
0 0 0
0 0 0
0 0 0
0 0 0
0 0 0
0 0 0
0 0 0
0 0 0
0 0 0
0 0 0
0 0 0
0 0 0
0 0 0
0 0 0
0 0 0
0 0 0
0 0 0
0 0 0
0 0 0
0 0 0
0 0 0
0 0 0
0 0 0
0 0 0
0 0 0
0 0 0
0 0 0
0 0 0
0 0 0
0 0 0
0 0 0
0 0 0
0 0 0
0 0 0
0 0 0
0 0 0
0 0 0
0 0 0
0 0 0
0 0 0
0 0 0
0 0 0
0 0 0
0 0 0
0 0 0
0 0 0
0 0 0
0 0 0
0 0 0
0 0 0
0 0 0
0 0 0
0 0 0
0 0 0
0 0 0
0 0 0
0 0 0
0 0 0
0 0 0
0 0 0
0 0 0
0 0 0
0 0 0
0 0 0
0 0 0
0 0 0
0 0 0
0 0 0
0 0 0
0 0 0
0 0 0
0 0 0
0 0 0
0 0 0
0 0 0
0 0 0
0 0 0
0 0 0
</DataArray>
<DataArray type="Float64" Name="cell vector length" format="ascii">
0 0 0 0 0 0 0 0 0 0 0 0 0 0 0 0 0 0 0 0 0 0 0 0 0 0 0 0 0 0 0 0 0 0 0 0 0 0 0 0 0 0 0 0 0 0 0 0 0 0 0 0 0 0 0 0 0 0 0 0 0 0 0 0 0 0 0 0 0 0 0 0 0 0 0 0 0 0 0 0 0 0 0 0 0 0 0 0 0 0 0 0 0 0 0 0 0 0 0 0 0 0 0 0 0 0 0 0 0 0 0 0 0 0 0 0 0 0 0 0 0 0 0 0 0 0 0 0 0 0 0 0 0 0 0 0 0 0 0 0 0 0 0 0 0 0 0 0 0 0 0 0 0 0 0 0 0 0 0 0 0 0 0 0 0 0 0 0 0 0 0 0 0 0 0 0 0 0 0 0 0 0 0 0 0 0 0 0 0 0 0 0 0 0 0 0 0 0 0 0 0 0 0 0 0 0 0 0 0 0 0 0 0 0 0 0 0 0 0 0 0 0 0 0 0 0 0 0 0 0 0 0 0 0 0 0 0 0 0 0 0 0 0 0 0 0 0 0 0 0 0 0 0 0 0 0 0 0 0 0 0 0 0 0 0 0 0 0 0 0 0 0 0 0 0 0 0 0 0 0 0 0 0 0 0 0 0 0 0 0 0 0 0 0 0 0 0 0 0 0 0 0 0 0 0 0 0 0 0 0 0 0 0 0 0 0 0 0 0 0 0 0 0 0 0 0 0 0 0 0 0 0 0 0 0 0 0 0 0 0 0 0 0 0 0 0 0 0 0 0 0 0 0 0 0 0 0 0 0 0 0 0 0 0 0 0 0 0 0 0 0 0 0 0 0 0 0 0 0 0 0 0 0 0 0 0 0 0 0 0 0 0 0 0 0 0 0 0 0 0 0 0 0 0 0 0 0 0 0 0 0 0 0 0 0 0 0 0 0 
</DataArray>
<DataArray type="Float64" Name="cell variable 4" format="ascii">
0.316217 0.000510187 7.22055e-10 1.1392e-10 0.249242 0.0032488 1.23542e-08 5.06408e-13 0.000319359 0.000137838 9.78894e-13 0.479217 5.48914e-07 1.04461 2.5153e-11 0.000586701 0.334198 4.77775e-11 2.14504e-13 0.161465 1.34433e-07 1.43573e-10 0.511974 1.79224e-10 1.25207e-10 1.06024e-10 0.393381 8.0853e-13 2.48184e-10 0.163146 9.42051e-13 0.626025 0.980966 1.75394e-12 0.437452 1.19294e-07 4.633e-11 0.184973 0.00760007 4.69927e-06 0.252014 1.1995e-07 2.42345e-06 6.26079e-12 0.000160982 5.75207e-12 8.58362e-10 0.434405 8.1913e-13 9.53305e-13 3.42967e-09 0.23011 0.442722 0.33356 3.05763e-10 1.53946e-11 1.06245 2.68958e-08 1.11547 0.912892 0.573608 3.35388e-12 6.26079e-12 1.07467 1.55471e-05 0.542818 1.12037 6.17036e-10 1.36606e-10 1.97283e-08 4.18495e-05 2.5907e-09 2.35345e-13 5.84028e-11 0.0976075 7.55742e-08 0.000116047 0.0505895 5.96913e-06 1.61534e-05 5.26566e-05 2.73299e-11 5.60239e-07 9.71611e-13 1.81312e-09 8.20491e-13 1.55214e-11 1.10185 1.14226 0.371127 8.20491e-13 0.708918 3.8559e-13 1.82626e-12 4.42555e-05 0.00273317 0.118662 7.85135e-13 1.3423e-11 3.14565e-11 0.503886 5.73e-12 1.68594e-06 4.8591e-12 4.44145e-11 2.814e-10 2.22629e-12 5.76039e-06 3.47057e-13 0.912892 3.83176e-13 1.11565e-11 1.3423e-11 0.673042 3.49399e-07 8.33062e-06 2.42345e-06 6.16323e-05 1.6923e-08 0.789941 6.21845e-13 1.12502e-11 3.37504e-10 4.46645e-09 2.16e-11 0.000425284 6.21089e-10 7.13306e-11 0.99432 0.000705084 2.06819e-12 4.42555e-05 5.41779e-08 0.000705084 0.66381 1.95527e-13 5.22026e-13 4.32436e-12 2.10901e-08 1.18023e-09 2.34778e-08 1.00681 7.58754e-07 1.95527e-13 1.73379e-12 4.633e-11 2.88095e-08 6.97512e-07 3.13132e-09 8.68069e-05 0.0773391 5.37776e-11 0.00151096 0.919422 1.16697e-08 7.29789e-07 1.85341e-12 2.00391e-09 1.12956e-11 0.000237451 3.42138e-05 0.94865 0.848855 2.59037e-13 1.10621e-08 5.78851e-09 0.657465 8.723e-13 6.30556e-13 3.48747e-09 0.27464 1.36504e-12 0.00403603 0.371127 2.4788e-08 3.89469e-09 2.0118e-13 3.72001e-12 0.130161 0.0824302 9.53305e-13 0.179448 2.86502e-13 1.32488e-09 0.00103121 1.89305e-07 1.2938e-10 1.41816e-10 0.313432 0.136507 6.83616e-13 3.01178e-10 1.07467 8.75867e-11 1.36132e-10 2.06659e-11 6.13175e-07 6.80038e-10 1.5044e-05 3.52153e-13 0.790107 2.44056e-08 2.28015e-11 3.58878e-10 1.84661e-13 0.50937 0.45141 3.48316e-07 7.55742e-08 2.44034e-13 0.514292 0.000157331 4.61276e-06 0.495708 1.0952e-09 0.153908 7.50844e-12 4.76435e-12 1.38398e-06 1.23799e-05 7.27365e-13 3.28772e-13 3.34221e-13 0.00145277 3.28772e-13 0.8063 0.000331293 0.332003 2.73979e-13 0.763876 1.76443e-09 0.90618 1.25207e-10 0.187543 8.15157e-13 0.0646441 3.38072e-08 1.14453e-06 0.00370628 0.631062 7.9236e-08 1.73262e-10 0.343308 0.32239 0.000306373 0.399988 5.52696e-11 0.736473 2.24794e-07 5.6859e-12 5.98214e-11 0.393247 9.86599e-09 0.36504 1.60998e-08 1.04772e-07 1.86103e-08 3.09214e-07 0.0097703 1.5272e-11 1.65194e-09 1.09841e-08 0.184059 4.92599e-13 0.000209614 0.27464 0.0978407 0.0505895 2.73299e-11 4.61276e-06 0.000319359 6.80038e-10 5.06408e-13 0.542818 7.29789e-07 4.76435e-12 0.136507 3.49399e-07 0.184973 5.37776e-11 0.187543 3.42138e-05 1.79224e-10 1.73262e-10 0.000116047 0.000157331 0.00760007 2.5907e-09 2.16e-11 3.42967e-09 1.14453e-06 0.23011 2.34778e-08 8.15157e-13 4.46645e-09 0.0032488 1.06024e-10 2.24794e-07 1.0952e-09 1.16697e-08 7.9236e-08 1.1995e-07 1.68594e-06 0.179448 9.78894e-13 0.118662 0.000160982 8.723e-13 1.10621e-08 1.61534e-05 0.631062 1.73379e-12 6.13175e-07 7.27365e-13 1.97283e-08 0.153908 5.22026e-13 1.11547 0.980966 5.48914e-07 0.0824302 0.32239 0.161465 2.48184e-10 4.69927e-06 5.75207e-12 3.72001e-12 2.10901e-08 0.00103121 1.36606e-10 6.21845e-13 0.000137838 6.17036e-10 5.26566e-05 3.14565e-11 5.96913e-06 3.48747e-09 0.495708 0.36504 1.55471e-05 2.59037e-13 0.249242 1.18023e-09 1.85341e-12 0.000425284 7.58754e-07 5.6859e-12 0.848855 0.000510187 2.44034e-13 0.657465 0.573608 0.919422 0.442722 0.399988 0.252014 1.55214e-11 1.82626e-12 1.23542e-08 3.09214e-07 0.000237451 0.343308 6.16323e-05 2.814e-10 1.12956e-11 0.763876 9.71611e-13 0.313432 0.789941 1.76443e-09 5.76039e-06 5.78851e-09 0.0773391 1.10185 3.01178e-10 0.790107 1.32488e-09 8.0853e-13 0.673042 0.00370628 0.66381 4.32436e-12 7.85135e-13 0.514292 3.52153e-13 1.65194e-09 3.37504e-10 1.43573e-10 1.14226 2.5153e-11 0.626025 1.04461 4.77775e-11 1.5272e-11 5.73e-12 8.33062e-06 0.00151096 0.511974 2.86502e-13 9.86599e-09 0.130161 2.68958e-08 1.34433e-07 2.35345e-13 1.23799e-05 1.5044e-05 6.21089e-10 8.1913e-13 2.06659e-11 7.22055e-10 6.83616e-13 7.50844e-12 3.83176e-13 1.2938e-10 0.434405 0.316217 7.13306e-11 0.393247 1.09841e-08 
</DataArray>
<DataArray type="Float64" Name="cell variable 5" format="ascii">
0.0909148 0.999974 1 1 0.138655 0.998946 1 1 0.99999 0.999998 1 0.0417277 1 0.00908091 1 0.999966 0.082177 1 1 0.277231 1 1 0.0367488 1 1 1 0.0606986 1 1 0.273099 1 0.0248813 0.0102849 1 0.0496613 1 1 0.226167 0.994257 1 0.136034 1 1 1 0.999997 1 1 0.0503251 1 1 1 0.158855 0.0485429 0.0824658 1 1 0.00878122 1 0.00797274 0.0118572 0.0294962 1 1 0.00858434 1 0.0328244 0.00790366 1 1 1 1 1 1 1 0.512105 1 0.999999 0.796223 1 1 1 1 1 1 1 1 1 0.00816951 0.00760594 0.0676886 1 0.0195097 1 1 1 0.999254 0.415271 1 1 1 0.037893 1 1 1 1 1 1 1 1 0.0118572 1 1 1 0.021599 1 1 1 1 1 0.0157727 1 1 1 1 1 0.999982 1 1 0.0100133 0.99995 1 1 1 0.99995 0.0221905 1 1 1 1 1 1 0.00976872 1 1 1 1 1 1 1 0.999999 0.62573 1 0.999772 0.0116913 1 1 1 1 1 0.999994 1 0.0109898 0.0136882 1 1 1 0.0226112 1 1 1 0.117059 1 0.998374 0.0676886 1 1 1 1 0.371169 0.595425 1 0.236958 1 1 0.999894 1 1 1 0.0923878 0.349234 1 1 0.00858434 1 1 1 1 1 1 1 0.0157662 1 1 1 1 0.0371116 0.0467791 1 1 1 0.0364304 0.999998 1 0.0391044 1 0.296844 1 1 1 1 1 1 1 0.999789 1 0.0151488 0.999989 0.0831765 1 0.016849 1 0.0120314 1 0.221374 1 0.705275 1 1 0.998628 0.0244954 1 1 0.0782104 0.0877689 0.999991 0.0588268 1 0.0181031 1 1 1 0.0607373 1 0.0698059 1 1 1 1 0.990544 1 1 1 0.227907 1 0.999996 0.117059 0.510913 0.796223 1 1 0.99999 1 1 0.0328244 1 1 0.349234 1 0.226167 1 0.221374 1 1 1 0.999999 0.999998 0.994257 1 1 1 1 0.158855 1 1 1 0.998946 1 1 1 1 1 1 1 0.236958 1 0.415271 0.999997 1 1 1 0.0244954 1 1 1 1 0.296844 1 0.00797274 0.0102849 1 0.595425 0.0877689 0.277231 1 1 1 1 1 0.999894 1 1 0.999998 1 1 1 1 1 0.0391044 0.0698059 1 1 0.138655 1 1 0.999982 1 1 0.0136882 0.999974 1 0.0226112 0.0294962 0.0116913 0.0485429 0.0588268 0.136034 1 1 1 1 0.999994 0.0782104 1 1 1 0.016849 1 0.0923878 0.0157727 1 1 1 0.62573 0.00816951 1 0.0157662 1 1 0.021599 0.998628 0.0221905 1 1 0.0364304 1 1 1 1 0.00760594 1 0.0248813 0.00908091 1 1 1 1 0.999772 0.0367488 1 1 0.371169 1 1 1 1 1 1 1 1 1 1 1 1 1 0.0503251 0.0909148 1 0.0607373 1 
</DataArray>
<DataArray type="Float64" Name="cell variable 6" format="ascii">
0.0038835 1.00883 1.00917 1.00917 0.0566856 1.00681 1.00917 1.00917 1.00896 1.00908 1.00917 0.00051123 1.00917 6.33494e-06 1.00917 1.00878 0.00576492 1.00917 1.00917 0.298329 1.00917 1.00917 0.00035504 1.00917 1.00917 1.00917 0.00151522 1.00917 1.00917 0.294057 1.00917 0.000115922 9.11938e-06 1.00917 0.000885689 1.00917 1.00917 0.208208 1.00277 1.00917 0.0441278 1.00917 1.00917 1.00917 1.00907 1.00917 1.00917 0.000857904 1.00917 1.00917 1.00917 0.0671729 0.000858618 0.00403961 1.00917 1.00917 5.74138e-06 1.00917 4.32387e-06 1.38076e-05 0.000187165 1.00917 1.00917 5.3719e-06 1.00916 0.000251962 4.21468e-06 1.00917 1.00917 1.00917 1.00915 1.00917 1.00917 1.00917 0.67289 1.00917 1.0091 0.900072 1.00917 1.00916 1.00914 1.00917 1.00917 1.00917 1.00917 1.00917 1.00917 4.64493e-06 3.76475e-06 0.0019189 1.00917 5.81379e-05 1.00917 1.00917 1.00914 1.00716 0.533485 1.00917 1.00917 1.00917 0.000380196 1.00917 1.00917 1.00917 1.00917 1.00917 1.00917 1.00917 1.00917 1.38076e-05 1.00917 1.00917 1.00917 7.76673e-05 1.00917 1.00917 1.00917 1.00913 1.00917 3.156e-05 1.00917 1.00917 1.00917 1.00917 1.00917 1.00889 1.00917 1.00917 8.43313e-06 1.0087 1.00917 1.00914 1.00917 1.0087 8.3838e-05 1.00917 1.00917 1.00917 1.00917 1.00917 1.00917 7.8448e-06 1.00917 1.00917 1.00917 1.00917 1.00917 1.00917 1.00917 1.00912 0.780596 1.00917 1.00816 1.32528e-05 1.00917 1.00917 1.00917 1.00917 1.00917 1.00902 1.00915 1.10661e-05 2.09522e-05 1.00917 1.00917 1.00917 8.84138e-05 1.00917 1.00917 1.00917 0.02163 1.00917 1.00605 0.0019189 1.00917 1.00917 1.00917 1.00917 0.477444 0.752638 1.00917 0.235078 1.00917 1.00917 1.00849 1.00917 1.00917 1.00917 0.00439847 0.432355 1.00917 1.00917 5.3719e-06 1.00917 1.00917 1.00917 1.00917 1.00917 1.00916 1.00917 3.15261e-05 1.00917 1.00917 1.00917 1.00917 0.000394946 0.000696942 1.00917 1.00917 1.00917 0.000349016 1.00907 1.00917 0.000410215 1.00917 0.3398 1.00917 1.00917 1.00917 1.00917 1.00917 1.00917 1.00917 1.00814 1.00917 2.80904e-05 1.00895 0.00364689 1.00917 3.81646e-05 1.00917 1.4406e-05 1.00917 0.185318 1.00917 0.841792 1.00917 1.00917 1.00642 0.000110922 1.00917 1.00917 0.00310284 0.00628005 1.00897 0.00127682 1.00917 4.69278e-05 1.00917 1.00917 1.00917 0.00202135 1.00917 0.0019794 1.00917 1.00917 1.00917 1.00917 1.00014 1.00917 1.00917 1.00917 0.235443 1.00917 1.00904 0.02163 0.674122 0.900072 1.00917 1.00917 1.00896 1.00917 1.00917 0.000251962 1.00917 1.00917 0.432355 1.00917 0.208208 1.00917 0.185318 1.00915 1.00917 1.00917 1.0091 1.00907 1.00277 1.00917 1.00917 1.00917 1.00917 0.0671729 1.00917 1.00917 1.00917 1.00681 1.00917 1.00917 1.00917 1.00917 1.00917 1.00917 1.00917 0.235078 1.00917 0.533485 1.00907 1.00917 1.00917 1.00916 0.000110922 1.00917 1.00917 1.00917 1.00917 0.3398 1.00917 4.32387e-06 9.11938e-06 1.00917 0.752638 0.00628005 0.298329 1.00917 1.00917 1.00917 1.00917 1.00917 1.00849 1.00917 1.00917 1.00908 1.00917 1.00914 1.00917 1.00917 1.00917 0.000410215 0.0019794 1.00916 1.00917 0.0566856 1.00917 1.00917 1.00889 1.00917 1.00917 2.09522e-05 1.00883 1.00917 8.84138e-05 0.000187165 1.32528e-05 0.000858618 0.00127682 0.0441278 1.00917 1.00917 1.00917 1.00917 1.00902 0.00310284 1.00913 1.00917 1.00917 3.81646e-05 1.00917 0.00439847 3.156e-05 1.00917 1.00917 1.00917 0.780596 4.64493e-06 1.00917 3.15261e-05 1.00917 1.00917 7.76673e-05 1.00642 8.3838e-05 1.00917 1.00917 0.000349016 1.00917 1.00917 1.00917 1.00917 3.76475e-06 1.00917 0.000115922 6.33494e-06 1.00917 1.00917 1.00917 1.00917 1.00816 0.00035504 1.00917 1.00917 0.477444 1.00917 1.00917 1.00917 1.00917 1.00916 1.00917 1.00917 1.00917 1.00917 1.00917 1.00917 1.00917 1.00917 0.000857904 0.0038835 1.00917 0.00202135 1.00917 
</DataArray>
<DataArray type="Float64" Name="cell variable 7" format="ascii">
0.357275 0.805214 0.978092 0.988818 0.413855 0.731648 0.944982 0.994685 0.786592 0.818915 0.993483 0.24144 0.895885 0.091923 0.989084 0.789622 0.334908 0.989411 0.998841 0.543895 0.953353 0.985799 0.2268 0.985845 0.986201 0.987264 0.290041 0.998525 0.983128 0.531783 0.992442 0.185875 0.103782 0.990411 0.262734 0.924335 0.988661 0.488241 0.695937 0.865788 0.422896 0.91048 0.886845 0.986261 0.804465 0.987088 0.980133 0.264653 0.991034 0.998509 0.963699 0.46057 0.259721 0.337987 0.973562 0.99226 0.0886341 0.95837 0.0788486 0.116913 0.203114 0.995708 0.986261 0.0863829 0.87201 0.214434 0.0779382 0.968141 0.97158 0.947968 0.828165 0.967203 0.99644 0.984507 0.58928 0.926812 0.821805 0.667622 0.876672 0.855098 0.808066 0.980165 0.910934 0.997889 0.951959 1.00169 0.991878 0.0813708 0.0738515 0.306453 1.00169 0.162493 0.994971 0.992078 0.85435 0.786302 0.633332 0.999409 0.99489 0.994724 0.230311 0.992247 0.922196 0.993424 0.98225 0.982487 0.998131 0.912087 1.00344 0.116913 0.999787 0.987627 0.99489 0.172124 0.887905 0.869271 0.886845 0.804393 0.966248 0.142859 0.996819 0.999395 0.974211 0.96428 0.987688 0.777768 0.969761 0.985824 0.10127 0.790771 0.994612 0.85435 0.955764 0.790771 0.174715 0.996832 0.994101 0.996076 0.945385 0.96829 0.922008 0.0989326 0.900971 0.996832 0.995481 0.988661 0.95287 0.921346 0.970096 0.812727 0.646851 0.979721 0.723507 0.115625 0.962378 0.91184 0.996643 0.966983 0.990645 0.815305 0.881455 0.109939 0.129973 0.998061 0.947397 0.969413 0.176526 0.996302 0.995339 0.970553 0.399197 0.994013 0.781706 0.306453 0.95286 0.960718 0.999721 0.995783 0.557964 0.652741 0.998509 0.481302 0.999409 0.978562 0.74517 0.938631 0.98041 0.9868 0.360012 0.58017 0.999374 0.975103 0.0863829 0.983673 0.986005 0.977907 0.926956 0.962912 0.867885 0.994962 0.142821 0.952017 0.98832 0.967409 1.00069 0.227704 0.255368 0.905229 0.926812 1.00105 0.225806 0.802201 0.89681 0.233945 0.965959 0.544906 0.989109 0.987181 0.900885 0.864126 0.997658 0.998671 1.00028 0.822606 0.998671 0.139181 0.823381 0.340125 0.99635 0.148901 0.962923 0.118245 0.986201 0.511928 0.991957 0.663687 0.960394 0.908704 0.736426 0.184332 0.937093 0.978337 0.329428 0.347352 0.774006 0.285858 0.988558 0.15552 0.921969 0.990758 0.988722 0.288948 0.963751 0.311423 0.969235 0.926865 0.933796 0.914119 0.724735 0.990516 0.973522 0.955946 0.426674 1.00277 0.803638 0.399197 0.570965 0.667622 0.980165 0.89681 0.786592 0.962912 0.994685 0.214434 0.91184 0.987181 0.58017 0.887905 0.488241 0.979721 0.511928 0.881455 0.985845 0.978337 0.821805 0.802201 0.695937 0.967203 0.987688 0.963699 0.908704 0.46057 0.922008 0.991957 0.96428 0.731648 0.987264 0.921969 0.965959 0.962378 0.937093 0.91048 0.922196 0.481302 0.993483 0.633332 0.804465 0.996302 0.947397 0.855098 0.184332 0.995481 0.926956 0.997658 0.947968 0.544906 0.994101 0.0788486 0.103782 0.895885 0.652741 0.347352 0.543895 0.983128 0.865788 0.987088 0.995783 0.945385 0.74517 0.97158 0.996819 0.818915 0.968141 0.808066 0.994724 0.876672 0.970553 0.233945 0.311423 0.87201 0.998061 0.413855 0.96829 0.996643 0.777768 0.900971 0.990758 0.129973 0.805214 1.00105 0.176526 0.203114 0.115625 0.259721 0.285858 0.422896 0.991878 0.992078 0.944982 0.914119 0.815305 0.329428 0.804393 0.982487 0.990645 0.148901 0.997889 0.360012 0.142859 0.962923 0.912087 0.969413 0.646851 0.0813708 0.975103 0.142821 0.978562 0.998525 0.172124 0.736426 0.174715 0.996076 0.999409 0.225806 0.994962 0.973522 0.974211 0.985799 0.0738515 0.989084 0.185875 0.091923 0.989411 0.990516 0.992247 0.869271 0.723507 0.2268 0.999409 0.963751 0.557964 0.95837 0.953353 0.99644 0.864126 0.867885 0.969761 0.991034 0.977907 0.978092 0.999374 0.989109 0.999787 0.98041 0.264653 0.357275 0.985824 0.288948 0.955946 
</DataArray>
<DataArray type="Float64" Name="cell variable 8" format="ascii">