<VTKFile type="UnstructuredGrid" version="0.1">
<UnstructuredGrid>
<Piece  NumberOfPoints="    3449" NumberOfCells="    2535">
<Points>
<DataArray type="Float64" NumberOfComponents="3" format="ascii">
16.6617 41.8851 0 
20.296 17.2336 0 
-23.0532 -28.1275 0 
51.7528 24.1788 0 
22.3779 6.42896 0 
-28.3635 2.58905 0 
-38.3068 39.3769 0 
0.99295 -11.7497 0 
-29.454 51.0756 0 
4.45411 -62.2923 0 
34.0682 -1.74494 0 
7.8377 40.3299 0 
-32.2508 -0.465931 0 
-53.5902 -1.10684 0 
36.8448 34.7068 0 
7.95468 -24.7623 0 
31.8263 40.7432 0 
-16.811 43.9043 0 
-24.7361 -17.7892 0 
32.8729 -26.6817 0 
28.7205 -21.3531 0 
47.0985 19.1586 0 
-30.9563 27.4126 0 
15.4945 2.89065 0 
-8.27925 35.2993 0 
-28.9393 28.2243 0 
-19.6044 -28.1288 0 
18.8414 -42.7226 0 
22.4662 -23.1996 0 
-3.64533 -55.8571 0 
4.48068 -46.901 0 
-41.8599 -46.1648 0 
-24.1708 -45.7894 0 
-45.4871 33.6241 0 
4.68379 -42.4025 0 
-16.2237 -35.4481 0 
-24.1985 0.676873 0 
22.6136 16.1163 0 
-12.4609 11.147 0 
-51.8237 7.03723 0 
-40.4463 -46.9237 0 
-18.8915 -50.2415 0 
-0.908259 -25.188 0 
-54.2529 -27.664 0 
-31.4862 49.8485 0 
-13.2797 56.3231 0 
-29.9543 -0.907624 0 
-14.5256 50.8437 0 
12.3199 52.5401 0 
-29.9119 28.9254 0 
6.03661 48.4215 0 
-49.4457 -26.2213 0 
-5.06365 37.178 0 
47.9054 6.72147 0 
-45.2859 36.8201 0 
28.5513 53.5505 0 
40.429 47.0577 0 
25.6967 24.0087 0 
17.3347 -47.5989 0 
-12.6196 37.7123 0 
28.7937 19.2135 0 
56.4455 -27.9413 0 
-34.156 8.25669 0 
-9.77016 -0.8965 0 
-10.025 -43.2958 0 
37.509 -20.9133 0 
-26.2193 -34.7304 0 
-11.9396 -51.622 0 
-3.06167 -50.3729 0 
-45.5367 28.9159 0 
35.5288 -9.21706 0 
-30.2726 -13.12 0 
-45.0176 0.775293 0 
-53.1207 29.487 0 
41.6844 7.74807 0 
47.0296 -6.58481 0 
-34.9833 11.2276 0 
-45.0861 30.9432 0 
-11.164 -50.118 0 
18.3972 3.91193 0 
-8.88473 21.0578 0 
25.1985 37.1881 0 
-25.8487 -26.0163 0 
-47.5794 18.0901 0 
-2.57914 -20.1842 0 
-9.85607 -19.7444 0 
31.5455 -15.4129 0 
51.8022 19.6653 0 
31.5121 35.5648 0 
-3.55403 -51.9403 0 
-52.4361 -30.1181 0 
-16.4166 22.0725 0 
56.9915 15.0854 0 
19.5236 30.6687 0 
-55.7233 -23.0572 0 
-11.6712 -58.9341 0 
5.97161 29.6079 0 
8.15451 -57.4173 0 
-28.0262 41.2409 0 
-59.3278 4.367 0 
7.91054 -19.3293 0 
-5.23292 2.02028 0 
-17.6926 58.3831 0 
-37.1493 -11.8193 0 
31.7459 1.8141 0 
-35.4406 -0.351433 0 
37.9173 38.4415 0 
27.9584 -1.72641 0 
54.2784 25.6474 0 
-12.5088 -24.8464 0 
-2.93063 -9.91784 0 
-44.8207 31.3387 0 
-18.6414 13.0282 0 
24.929 -39.7339 0 
41.5329 45.3054 0 
-0.353404 -35.7529 0 
29.6149 10.9521 0 
3.91815 33.2764 0 
-13.9782 -58.3467 0 
-55.9381 -16.8856 0 
22.0584 55.3009 0 
18.6941 -1.59975 0 
-42.4241 -3.47548 0 
-2.81242 29.291 0 
-18.8147 2.02916 0 
-4.12536 -5.8687 0 
40.4478 1.55762 0 
45.0254 26.0635 0 
12.1186 13.8572 0 
-21.719 45.8563 0 
-18.9312 -37.0951 0 
-57.2721 -3.12071 0 
29.0924 10.5723 0 
-30.7283 -49.2745 0 
-10.0062 -6.80974 0 
-48.2568 6.96287 0 
-27.1919 -50.5545 0 
21.705 39.02 0 
10.5758 22.3154 0 
10.2978 -6.22302 0 
58.6284 -3.36314 0 
-10.7321 -61.7377 0 
3.06732 14.3936 0 
-16.4457 43.4684 0 
-31.8058 -7.62345 0 
-30.7246 37.7331 0 
14.0008 -43.2621 0 
41.8414 -45.1014 0 
-4.64712 -38.1479 0 
-20.8557 20.6657 0 
30.0716 -38.2571 0 
39.4347 14 0 
-46.7571 -36.1718 0 
26.7637 -41.1136 0 
-52.0525 22.8748 0 
38.3583 25.1656 0 
23.8973 47.7013 0 
50.1605 31.6189 0 
42.2028 -27.5228 0 
42.2819 17.6 0 
-58.3159 -11.0752 0 
-32.0485 -38.3738 0 
51.3464 -1.43544 0 
21.2655 39.724 0 
-5.98252 -52.7994 0 
56.523 -16.6024 0 
48.9094 35.1309 0 
-31.8717 -36.6104 0 
3.01657 45.2745 0 
8.31865 56.1012 0 
-15.7794 55.2171 0 
23.0591 28.2217 0 
-52.4219 3.38957 0 
18.6095 18.8644 0 
15.8334 -19.2952 0 
-23.0454 51.1362 0 
-59.648 -14.9963 0 
-25.17 35.0795 0 
28.2051 -48.5387 0 
37.8688 -23.1226 0 
10.4939 -44.436 0 
2.96339 61.333 0 
-21.0268 55.7789 0 
-2.48461 11.0912 0 
-29.5311 49.7613 0 
-9.40169 58.0755 0 
37.4834 -37.8145 0 
-6.05357 14.3274 0 
29.0131 -28.3892 0 
-22.0969 -40.3306 0 
6.09132 56.7959 0 
37.5175 15.6949 0 
-14.4961 -43.7943 0 
-31.4001 -19.0036 0 
16.0029 46.3225 0 
45.2958 26.93 0 
16.2005 31.9416 0 
-50.7517 22.8704 0 
8.58234 10.5905 0 
-38.1286 -40.4855 0 
15.6289 58.8941 0 
37.8518 -12.411 0 
-36.3996 30.1748 0 
-38.3768 -38.8559 0 
-9.75989 -29.224 0 
-4.7012 37.3743 0 
-25.6263 5.31004 0 
-12.3169 38.6628 0 
-6.2344 -13.0567 0 
0.716703 -36.2115 0 
-12.6783 -59.228 0 
53.5786 5.00561 0 
3.74942 3.53478 0 
18.6855 -2.74049 0 
-15.5702 -20.9947 0 
51.1484 -32.3327 0 
7.48518 61.0992 0 
-14.751 48.3852 0 
-21.3722 33.5513 0 
-0.472551 -52.1259 0 
-35.8123 49.6719 0 
-2.02754 43.3062 0 
60.4846 6.45284 0 
-15.5413 18.8398 0 
42.2452 -28.8989 0 
41.4724 8.26983 0 
43.7387 -30.5485 0 
40.0674 41.7085 0 
34.8212 -1.37616 0 
-10.9959 58.585 0 
-5.73538 52.1462 0 
42.8672 -5.18527 0 
-34.9123 9.27031 0 
-47.3176 17.4318 0 
56.9637 -25.343 0 
-42.3984 6.63081 0 
15.455 19.9961 0 
-19.4986 18.6731 0 
-16.7803 -19.3594 0 
57.1586 -1.12026 0 
-31.9769 -45.0252 0 
-2.44222 54.2847 0 
-49.3421 -18.2152 0 
18.5692 -3.05745 0 
56.1602 -28.7753 0 
-8.96466 -21.1285 0 
5.69916 31.9989 0 
-14.3445 -54.4579 0 
-24.5418 47.8219 0 
-15.7807 -34.4419 0 
-9.02395 -25.256 0 
22.0168 16.6215 0 
18.9729 18.84 0 
-27.8194 -26.3526 0 
19.7036 -54.29 0 
-23.2262 -59.4206 0 
-45.8488 -37.7817 0 
-10.868 31.0606 0 
0.836286 -42.5301 0 
-37.6883 -37.5469 0 
52.8946 -3.22267 0 
14.8559 -18.4864 0 
26.8347 33.2812 0 
57.4121 -2.88727 0 
10.2926 -41.3208 0 
42.2749 -26.4003 0 
-21.2242 26.1406 0 
-47.0577 18.5233 0 
-18.9433 2.55828 0 
49.123 -23.2033 0 
26.8537 -11.083 0 
-33.0209 -30.1919 0 
-36.9354 -5.88782 0 
41.8555 7.60365 0 
37.0879 24.8237 0 
-0.114162 -48.0754 0 
47.4414 1.3011 0 
28.4535 -4.20907 0 
10.4378 43.0865 0 
-15.486 -12.9116 0 
-21.4253 45.5306 0 
12.3771 45.1109 0 
-13.2509 -42.8226 0 
44.8215 -11.5743 0 
23.7671 -15.6741 0 
35.7161 10.0959 0 
61.942 -2.08831 0 
18.6664 -1.71266 0 
50.8884 -9.67387 0 
-37.216 24.9244 0 
-47.3805 -5.72507 0 
-17.1583 2.9686 0 
-8.79167 43.5231 0 
-44.1346 41.877 0 
-40.6983 -8.95147 0 
8.58661 7.62984 0 
6.81107 -44.6283 0 
1.14143 62.0228 0 
-25.7746 35.8318 0 
-31.2533 -7.45169 0 
-18.1498 19.3778 0 
17.699 48.893 0 
-50.2624 -20.9056 0 
55.4336 23.6291 0 
47.5117 -16.8576 0 
-16.3373 -19.7062 0 
59.8826 10.144 0 
4.39938 33.2366 0 
21.922 58.8269 0 
-12.3333 -12.2902 0 
47.6676 0.446898 0 
-21.8584 -2.43224 0 
-57.9324 31.1248 0 
-7.79729 -35.9186 0 
35.6964 -12.6956 0 
-58.8776 10.801 0 
-38.8827 32.2205 0 
-14.0998 -33.1594 0 
-13.1402 15.2053 0 
46.8571 16.4692 0 
20.5626 51.5946 0 
29.6383 -32.9844 0 
20.5441 -46.7732 0 
55.5817 4.36942 0 
-54.3221 15.6757 0 
-1.18243 -6.96311 0 
-23.8168 -20.3622 0 
16.9781 -53.8879 0 
45.576 24.9398 0 
-59.7891 3.23258 0 
42.0104 -28.4023 0 
-47.3983 -5.77825 0 
5.42381 -19.8822 0 
-21.3071 51.679 0 
-32.7201 -19.1417 0 
42.8346 -44.4215 0 
48.31 -8.69159 0 
17.6864 -36.841 0 
-25.1287 -22.9516 0 
-19.4331 14.9319 0 
28.2931 -24.2717 0 
-1.05637 35.0178 0 
42.2158 -27.7656 0 
1.78086 45.4313 0 
26.4256 -55.4782 0 
-40.7236 31.5218 0 
-5.03261 41.3835 0 
1.65151 -22.1498 0 
-19.4218 13.8266 0 
22.0386 43.9667 0 
60.2564 9.0718 0 
-36.7941 13.5742 0 
-33.7168 15.2314 0 
-7.33636 -13.3711 0 
19.9041 -25.9306 0 
-12.6316 11.1057 0 
0.477809 12.7044 0 
-34.7053 35.6356 0 
-13.8772 -32.6104 0 
-23.5529 27.4815 0 
13.6126 -13.5948 0 
5.58471 32.2251 0 
-28.4736 17.5308 0 
-43.5635 13.3417 0 
28.9822 -32.1176 0 
6.93367 39.9043 0 
-36.3596 -2.1768 0 
-15.9608 -43.6796 0 
-44.6708 1.92127 0 
2.72078 -0.996771 0 
-6.33368 -43.3647 0 
40.7615 12.7722 0 
14.1045 10.8933 0 
-40.6541 22.931 0 
9.57754 -43.7976 0 
20.2505 -37.7868 0 
1.31068 52.8974 0 
52.8229 9.06165 0 
-23.78 27.9783 0 
7.34834 -11.9874 0 
-49.9517 -7.74801 0 
26.828 40.2225 0 
28.4036 19.2524 0 
26.3782 12.1126 0 
18.0227 -17.9231 0 
-40.2414 22.9515 0 
-23.8671 10.6796 0 
50.4552 -16.7755 0 
-47.3869 -16.8366 0 
-17.9574 -22.3784 0 
41.634 14.9988 0 
-9.36403 8.1074 0 
44.398 26.1118 0 
-39.2168 -14.9813 0 
37.8567 -19.6838 0 
34.9837 -9.05622 0 
-13.6224 10.9488 0 
20.588 -17.4863 0 
-2.46308 12.6407 0 
51.6631 15.34 0 
-14.631 35.8763 0 
11.2121 -19.0115 0 
-7.90296 46.4086 0 
9.50484 -55.7815 0 
-52.0333 6.47175 0 
-1.8993 -12.694 0 
-27.5486 35.5192 0 
-53.1848 23.1316 0 
-9.17674 -20.2647 0 
27.3279 44.0244 0 
31.7135 34.905 0 
-11.8457 13.4181 0 
8.6814 -37.8231 0 
37.1044 -38.2166 0 
14.3379 8.95723 0 
-32.839 42.1798 0 
-11.2573 -0.474865 0 
0.2147 20.6158 0 
-13.9277 -55.5532 0 
-13.4955 -3.58135 0 
1.61895 -14.092 0 
-3.60038 0.461215 0 
15.6795 7.26778 0 
53.1182 26.8582 0 
-35.9937 -45.6435 0 
-5.58638 49.8695 0 
11.2923 -45.8893 0 
-15.4755 -21.8176 0 
3.78471 28.2105 0 
17.7768 30.3843 0 
-1.26017 43.5684 0 
37.5627 6.28451 0 
-1.42296 20.9879 0 
-20.7701 19.5008 0 
-45.4154 -2.59384 0 
34.1401 -41.6823 0 
-17.3139 -2.56879 0 
12.9434 -12.75 0 
-51.9958 -8.47828 0 
15.9149 -8.13794 0 
-22.6285 -39.1237 0 
2.99014 8.72529 0 
15.176 39.5844 0 
14.2276 -37.7425 0 
43.1753 -44.0263 0 
4.8062 9.5343 0 
-25.4086 -16.3284 0 
-2.98662 -42.2968 0 
-24.2424 -38.0196 0 
-0.617604 21.498 0 
-37.6025 -10.6318 0 
56.7704 -26.5416 0 
11.6653 27.8773 0 
-44.5307 -27.0717 0 
-24.1154 41.3807 0 
40.4888 -45.7979 0 
-0.744194 35.7045 0 
29.3197 -42.2833 0 
33.9633 -1.30225 0 
36.0423 22.077 0 
-30.7296 -5.43229 0 
61.0766 4.29523 0 
29.3577 -42.9405 0 
-0.808834 32.3933 0 
-0.742646 47.9018 0 
27.5578 -49.3753 0 
0.0103705 3.83455 0 
-59.2722 6.79133 0 
57.4371 14.643 0 
31.4752 11.6365 0 
-14.5001 -39.3154 0 
3.36849 14.5752 0 
33.1154 -53.2702 0 
23.5655 27.4889 0 
21.9742 -7.59943 0 
-18.2511 -43.7811 0 
-3.60695 -46.1623 0 
-20.1772 34.6061 0 
31.7861 -35.0098 0 
6.15348 48.8613 0 
20.4207 -53.7173 0 
-10.0136 9.43795 0 
27.926 -41.1255 0 
-23.2391 -12.1472 0 
-19.0072 -28.3612 0 
-17.1836 -11.457 0 
-15.1527 -14.1934 0 
57.0608 -13.1031 0 
10.8373 -28.3298 0 
-18.2948 -51.9168 0 
44.2198 5.47215 0 
56.1381 -16.6815 0 
-49.876 -19.4995 0 
-41.0772 -13.8253 0 
[...]
<CellData Scalars="wall variable 0">
<DataArray type="Float64" Name="wall length" format="ascii">
1.94575 2.81846 2.07995 4.06579 0.555338 0.309884 2.40236 2.62923 0.47132 4.22523 0.317506 0.478736 6.24157 1.55702 2.67502 7.02512 1.33529 8.43516 3.11149 0.925467 7.52811 2.32841 4.20271 9.01498 0.543958 1.72767 3.59279 0.343281 3.09372 1.73492 6.62539 4.15227 2.19681 3.58177 5.97307 4.79262 1.99733 0.777617 7.17928 1.12036 2.52843 1.50854 7.5726 0.250821 0.768417 7.8789 2.58994 7.77873 0.763676 1.12036 0.841577 2.87138 3.01423 0.548616 6.49589 5.0162 2.1316 1.96981 0.571746 1.6096 6.6797 2.04567 0.580979 5.24164 1.45746 0.477286 3.77297 3.91259 2.69231 2.76455 1.36883 0.548485 1.51764 1.156 7.45005 1.53882 2.04464 3.42906 4.39794 3.73512 2.51032 7.3181 5.43427 2.39817 6.42999 2.27755 2.72644 2.36059 0.430326 1.68744 0.283835 5.32869 0.800993 2.80121 1.33969 6.30321 0.0417379 3.11159 5.8665 1.85116 0.769653 2.53384 0.986035 3.0339 6.46857 3.45752 0.928017 6.20601 5.2863 0.616436 3.74056 4.87475 3.68661 0.427891 5.40459 5.32321 0.811003 5.40459 3.58088 1.53671 5.69237 0.946799 5.62876 2.1682 2.51618 7.77873 3.0339 3.99282 1.06236 4.00493 5.56055 2.77635 1.4979 1.37784 3.78974 1.10707 0.662964 8.57059 1.51653 1.10707 5.05641 6.84611 0.459506 1.32142 9.57381 1.4517 6.71845 3.76079 6.9871 0.51537 3.74056 7.62047 0.563391 2.33365 9.01498 1.93722 5.83552 5.71519 3.94362 1.00584 3.75549 1.84121 3.08534 7.08911 8.38012 5.23258 1.29693 2.83354 2.56826 5.37037 3.81011 4.35894 6.06556 1.53654 10.3395 0.667309 0.254224 7.05449 4.64715 4.28755 5.62628 0.359887 5.81938 4.92766 2.54195 7.86569 1.49177 2.1712 2.63275 0.502513 3.97241 4.87605 2.01991 7.10727 1.20409 0.263105 3.30178 4.27932 2.54337 3.6561 0.913182 1.23906 2.41441 2.65129 3.34887 3.38374 6.63606 2.82834 5.64667 0.303152 2.68369 1.38827 0.156441 1.82258 2.63212 0.0417379 0.382618 5.84104 3.02895 0.882143 6.34132 0.223426 4.61483 5.81586 1.60131 4.11168 7.63139 3.47406 6.5373 1.18382 7.95545 4.12881 2.37237 7.25074 5.72351 2.96276 0.667309 0.459431 4.99504 1.41823 2.44873 6.47889 0.919892 7.90079 1.41215 1.14871 5.65255 0.628301 1.33303 2.49178 4.43271 1.4837 2.18355 3.26853 4.63368 7.52811 2.23975 1.29053 0.943589 8.27119 1.1838 4.11168 2.81167 4.06012 5.95156 2.99239 0.399172 9.4255 0.920013 12.25 1.4547 6.93394 0.59519 1.87708 7.25074 1.37974 2.71962 2.92916 5.0162 0.557355 0.303152 7.04636 2.69446 1.14851 2.15914 6.69671 4.35621 0.534291 4.63368 1.6062 2.20358 3.30178 2.94783 2.40932 3.2595 5.22048 2.87138 1.14733 0.238313 3.88265 3.47406 0.388115 6.55109 2.07995 6.62775 1.94136 3.53178 6.08942 3.07656 2.35596 0.802822 4.67312 5.65408 3.88999 5.45312 3.49521 3.80317 4.59328 2.89231 1.7629 1.39734 7.00879 2.88298 3.16651 4.1637 0.886284 0.802822 7.24378 0.732463 5.34347 2.15514 1.36883 0.184605 1.15114 0.359887 3.20963 0.543958 2.33365 1.17332 9.41793 1.45555 1.40521 7.64021 2.82334 1.99148 4.74209 0.981325 3.26824 1.17332 3.00862 5.43863 4.1637 1.00086 1.96981 5.20261 2.65626 7.5654 0.777388 5.72351 1.87708 3.68718 1.41816 4.64715 0.478736 7.78589 1.64644 3.38207 5.80128 7.02401 1.40503 0.253405 6.62775 2.81846 6.07474 5.03998 1.62242 1.366 2.89231 1.36502 1.14975 6.25466 5.01957 0.365602 5.9012 0.657176 10.4223 1.41103 1.96707 0.852318 0.183611 12.9134 0.371842 0.256725 6.4496 3.65671 0.444933 1.84121 2.53555 1.41247 1.90145 4.86681 6.4113 2.30678 0.309884 6.44391 2.58979 3.15475 1.36692 5.65256 0.706959 0.939628 5.58699 0.527502 4.61511 3.33135 6.07474 0.462301 6.16232 1.54456 1.0824 7.08911 1.76216 1.40815 10.0852 3.58177 6.47446 4.10859 0.564847 3.60628 0.432837 0.510757 1.20132 3.98295 0.303602 1.40815 3.42309 5.45312 3.61782 5.09149 1.56966 1.09941 2.8941 8.02432 0.555166 9.10387 0.17409 3.8094 5.7085 1.72158 3.60442 6.32537 1.709 3.97445 0.722385 2.64846 0.512247 7.00879 3.33746 2.14585 2.98857 2.39817 1.67641 1.91431 9.4567 1.61643 0.281797 8.35988 0.325909 5.67043 0.394238 3.54837 2.32613 2.04464 3.55927 0.624614 5.62153 1.51343 1.73492 3.60628 3.11979 4.64731 0.420996 4.7186 1.79152 6.6489 3.49993 2.03426 3.95616 1.1377 5.24164 7.37393 6.46857 5.56055 2.50033 2.5236 0.382618 0.419793 10.547 2.69446 3.49677 4.04661 0.283835 2.40191 1.21098 0.999793 0.793987 1.55702 5.50915 1.79704 9.39754 4.04661 4.68453 5.6713 5.32869 0.44114 1.8276 11.9103 1.22963 12.9134 0.493196 2.66275 1.17879 7.75737 0.485671 8.60891 3.91914 4.78939 3.61635 0.99168 4.17097 1.56437 0.408043 4.8588 6.15961 1.51764 7.6657 0.556821 1.14975 3.09792 4.47451 0.953791 1.18625 1.18272 2.63585 6.20601 0.183611 8.12016 4.92396 5.12059 0.493196 5.72104 2.54195 0.784371 0.976407 2.99547 7.46548 1.9082 5.89173 0.662964 1.51653 3.53986 5.06728 2.86488 0.458612 8.9343 0.44114 5.12059 1.19864 4.50123 8.90728 5.22048 0.822411 5.81938 1.15114 1.92222 3.16879 6.73812 0.656048 4.27932 2.20358 4.47451 2.22797 4.39845 5.28646 2.31049 1.06236 4.51942 0.490003 1.83749 6.4496 6.06657 0.37859 3.70837 2.40236 2.30678 5.46028 1.11535 5.65408 4.17004 0.126925 0.679864 7.5726 1.62242 7.57721 1.23906 4.59505 0.790386 7.06317 7.06317 8.19751 0.760986 1.07578 1.7629 1.366 6.54703 6.56568 5.8665 2.32042 1.51263 1.47179 4.3357 1.97432 0.815983 3.10066 7.5419 5.8369 8.80217 1.82258 4.02497 0.68771 1.25703 1.01569 6.54703 3.11159 2.63212 8.80217 1.30762 6.50282 0.862276 1.53654 2.03781 2.1712 2.28378 0.97441 1.0389 4.36017 3.36602 2.36881 6.34052 1.51343 1.07667 1.54312 4.62146 1.2152 1.39292 6.62539 6.13818 6.30321 1.87131 3.89892 2.99041 5.4202 0.370076 3.81011 2.96276 0.327923 0.727745 2.06469 4.58488 3.67765 2.24528 4.37833 1.02685 5.32321 0.811003 3.22073 1.64644 0.530826 3.30407 0.99168 1.87149 12.2096 4.64037 7.09977 0.339426 3.01453 1.46828 4.81236 1.45918 5.62628 2.16316 3.17226 3.51815 0.391313 3.99783 3.13246 0.484617 1.91431 5.0197 7.48948 1.58472 3.91263 0.154489 1.37882 0.399172 5.31331 4.89609 6.59333 3.39789 6.52924 1.35553 6.01992 6.75502 2.62923 3.70837 1.27656 3.82894 9.78271 1.57339 1.97495 11.9873 1.82816 5.37037 0.285892 5.98236 0.408043 3.74725 0.866778 0.901959 4.50245 0.782079 0.135452 1.89693 1.99494 6.16714 1.41877 9.2328 0.349594 1.01266 4.82868 1.6312 1.97235 1.03511 2.02678 7.5419 4.30273 5.97307 0.763676 2.51618 0.695014 1.36814 4.50552 0.635444 5.73447 4.65202 3.01423 6.55109 0.441296 4.50123 3.25489 0.361921 0.154489 8.75952 1.26944 0.815983 1.89212 0.291209 10.6249 3.26824 2.04267 1.1191 7.14809 9.41793 3.70148 2.63275 2.03781 6.06556 3.81534 3.33135 1.43617 2.41441 7.57721 5.03998 0.668419 3.17614 1.15945 7.02401 1.94575 6.75502 5.20261 2.1316 2.92916 4.82746 6.04781 0.247905 0.223033 4.58488 4.14566 3.11757 9.2328 3.45752 0.51537 4.20271 2.48878 8.5873 0.467878 9.33045 4.74209 3.88662 1.48327 2.06146 5.83146 4.65202 2.21472 2.4061 0.999793 0.531356 0.635444 4.172 0.467878 0.928504 3.62081 2.73121 4.59259 2.84512 8.10197 3.25789 7.71033 0.943589 1.06003 6.79993 0.754779 6.15473 4.301 2.7235 4.72779 3.74161 1.60081 2.05754 6.55988 3.11993 6.16849 5.42158 11.5995 0.775013 0.768997 2.50033 4.00493 2.31049 0.256725 8.90167 3.98295 8.45164 0.901959 3.12062 1.4517 3.24844 1.15206 0.327923 6.47889 1.76217 1.59539 1.82223 0.760742 7.80244 0.527502 4.60471 3.24745 2.74804 3.16559 4.33553 1.67307 7.4031 1.00584 1.62013 4.08408 3.28108 3.25917 5.38259 2.04378 1.71673 4.99504 3.99381 10.5906 1.56276 6.84611 2.76455 8.04873 1.92222 1.6062 8.90728 0.184605 6.3537 9.39754 0.323512 1.53671 2.01198 2.24141 1.79133 2.04878 3.17614 3.84875 5.74988 1.13257 3.97445 1.51058 2.4732 0.27438 7.19238 1.20409 1.81117 6.34122 3.74161 0.667915 5.5965 0.769653 1.02934 7.41521 0.902171 4.62146 1.47513 5.17292 0.953791 5.28646 4.99087 0.207145 3.76079 2.37902 0.0993824 1.6096 2.9259 6.10868 6.97031 3.17226 6.61946 1.33303 2.72602 2.77945 4.301 0.575274 6.06657 4.00418 8.00079 1.5267 1.69262 5.42 1.2152 0.902171 0.974551 7.20319 1.43366 6.83806 3.98493 5.65256 0.563391 8.4353 0.872166 5.23993 0.732832 6.61987 0.732463 2.84448 8.13461 1.14733 0.841577 7.17928 0.325909 5.21558 2.54337 2.39707 1.89212 1.97432 2.92872 3.80206 5.64451 0.557222 4.60775 1.07825 0.119862 2.52418 0.281797 1.35721 4.14566 2.06469 4.65645 5.75157 4.00058 0.557222 2.63382 1.7373 3.27271 3.91259 2.29434 8.60891 0.55082 5.13456 1.06003 1.71245 5.60759 5.43947 0.616552 5.45556 0.895086 2.65626 6.04781 3.47178 6.33502 1.87548 6.63757 4.67021 6.28567 1.4547 2.20964 3.19619 0.922296 4.57676 0.385279 3.36098 4.78939 4.17103 1.75687 4.32877 1.60081 6.34122 5.04602 2.14081 2.81615 4.36017 1.27778 4.86681 1.11845 0.602375 0.667915 4.72779 1.9323 0.17409 1.55455 2.27755 0.302189 6.81519 5.42932 5.69531 2.18355 3.86859 2.21632 4.30273 3.10066 1.26944 0.412146 3.71346 1.61159 4.79262 2.53555 8.38012 1.0824 4.62074 3.61782 0.433684 1.01266 7.64373 2.77635 0.42446 0.339426 1.56367 3.05888 3.02455 0.706564 5.53067 7.50323 1.71276 0.502101 6.53391 4.37749 2.53384 5.5965 0.602375 5.39824 3.86201 3.49521 3.42309 1.76216 3.08534 0.444933 3.69695 1.03511 7.9079 5.09149 4.62074 1.54456 1.68153 0.306014 7.39191 2.9569 3.24844 6.9871 0.207145 0.837577 5.96962 7.60617 0.429003 2.8042 7.37065 0.306014 4.99087 4.39845 0.432224 3.01583 1.30762 6.86197 2.24528 1.022 2.74926 7.19345 2.40932 6.27671 2.15894 3.17892 0.760742 3.11182 3.28108 7.09213 6.829 1.86433 3.07656 1.11535 1.50854 1.89914 5.60759 7.75737 1.96198 0.748673 1.28627 7.84183 5.73447 4.59259 3.67076 2.62629 2.21472 0.616436 4.83694 0.792737 8.4353 7.62047 0.673402 0.784371 4.92766 0.822411 3.2595 7.19345 6.27057 0.69571 3.72127 5.23258 1.82816 0.953579 0.0767682 0.732832 2.69905 6.92758 1.22842 1.34659 3.24745 3.68749 4.51288 4.96866 1.65663 1.67307 3.11182 1.82223 1.37882 10.6249 2.57852 9.4255 2.02678 2.1682 6.33415 0.689 0.156441 9.06054 2.32042 4.89456 2.35085 5.63167 3.10276 2.99041 1.42518 0.768997 7.42333 3.95616 0.771221 5.84104 2.5236 0.412252 2.56928 4.78234 0.392252 5.81586 4.88661 3.00862 1.99148 0.280949 1.70341 0.628114 5.42158 4.32606 5.28034 6.16232 1.69005 0.899347 3.68749 4.60471 3.02261 4.88661 4.61483 5.12705 0.0639915 0.576138 1.96032 1.31639 3.68718 0.59519 4.34592 7.77381 2.30403 1.34998 2.66275 2.29434 4.142 6.61027 3.34887 1.95624 1.24167 1.72881 0.197203 1.27656 1.13049 4.8596 5.46249 5.12705 0.223426 0.922475 6.25998 0.966181 6.81227 2.44537 1.43179 3.74272 3.11149 4.89456 7.38844 2.15894 0.595459 0.875577 2.56696 2.06146 5.83936 1.77695 2.01991 0.656048 2.3729 0.867374 0.928504 3.64817 1.89693 2.33596 5.38566 0.69571 3.72126 0.679864 12.4303 0.16309 3.19619 8.78408 0.250821 4.81236 6.35213 1.93006 0.672358 4.35702 3.48488 5.76208 3.62081 0.867374 6.52369 1.58467 1.7373 1.35681 6.52369 2.3729 6.73812 4.87475 1.02685 3.61635 3.36098 7.70339 2.4732 4.58521 1.93722 2.4524 6.67794 1.04454 6.51374 1.56367 7.09977 5.57368 0.794281 2.91671 3.72126 6.27057 5.23993 1.71673 6.99577 0.343281 3.32148 3.56042 1.41823 3.38374 4.8596 1.76313 0.920013 2.57852 0.291209 2.39707 0.73739 5.60002 6.79993 5.13456 2.92393 4.32606 6.16849 3.38242 4.11178 6.24157 5.80128 3.2762 5.50915 0.790386 0.409922 1.156 2.63262 1.79133 5.03065 8.19751 0.330026 2.81976 4.29892 2.72602 0.628301 8.04696 1.89914 2.52843 1.73108 5.56294 5.43947 4.0857 1.75841 3.31733 5.82991 1.56437 4.26593 1.85208 3.421 0.707358 4.12881 0.777388 7.05449 0.0993824 0.894437 2.51032 2.30526 0.838152 3.40675 6.6797 4.85558 5.01957 2.21318 0.826061 5.38259 4.82414 1.24167 1.97939 3.16559 5.43613 7.97957 4.5731 2.01198 3.58088 0.427891 0.166783 3.13246 1.29648 1.75841 2.43081 5.38969 7.53823 3.55927 1.53882 4.84125 3.6561 5.21558 0.490003 5.09578 4.45484 1.96198 1.17879 1.34998 6.64611 6.00313 4.26593 4.17097 3.30407 2.54326 1.80334 8.04696 5.65255 2.9169 2.99879 6.27824 1.76217 2.44873 3.56042 1.10361 7.20319 3.04305 2.81167 1.60131 0.392252 1.59778 3.53986 9.57381 3.75415 4.92055 3.23557 6.03734 6.33415 5.62876 3.69695 3.65671 1.83749 6.64611 2.30403 3.40649 2.69706 0.922296 0.16309 1.04654 3.47178 4.82746 1.14851 10.547 4.02497 6.34132 2.1648 1.08991 2.67228 2.03637 1.36182 3.05888 6.51374 2.27127 6.99892 1.72158 5.73412 1.47513 1.54312 3.54623 1.94114 1.65643 1.42518 0.727745 7.80244 3.17892 7.38844 2.04378 0.826061 1.9633 2.48878 3.09372 6.99577 5.2863 2.63585 2.27012 6.12576 4.83694 3.22073 5.69237 0.323512 1.79704 3.2762 3.38207 1.18015 1.37974 2.37237 0.707358 3.00147 5.42932 0.989265 7.97957 4.58521 1.51058 1.709 3.4984 0.949705 1.59615 5.83552 1.19746 4.52257 3.52 2.8536 2.15379 2.0929 6.96134 1.39617 1.18323 1.14786 0.330026 1.80334 7.26638 3.36602 2.81615 1.12682 2.33596 0.135452 7.35988 3.68661 7.70339 0.385279 0.736596 6.63757 2.71962 1.18015 0.166783 3.01583 4.93866 3.66094 6.50282 0.617295 1.73038 4.2534 4.22523 7.19944 3.31796 2.82574 5.67065 0.119862 10.4387 2.21145 6.64071 2.88298 2.14938 1.94136 0.253405 1.14515 0.455724 0.502513 3.70148 6.28836 1.29468 2.20174 10.5906 1.44869 7.19944 0.47132 2.01724 3.2476 3.80206 1.61643 3.02619 5.95156 2.62635 1.85489 2.05754 4.32877 0.16012 1.45555 7.14809 4.72513 6.83806 2.83354 1.28502 2.94383 3.52 1.75499 5.18098 4.8588 5.98236 0.683947 9.65051 1.92502 0.820975 1.96032 1.3862 3.89892 2.62532 7.90079 1.14002 3.01453 2.77945 4.29892 3.34186 6.29838 1.9323 6.55988 1.85489 2.63031 1.02934 0.721556 3.8094 1.73108 7.8789 0.0860464 3.31733 1.29648 3.99783 1.00434 0.965956 2.8941 2.64394 2.9259 0.477286 8.7815 2.47009 8.13784 0.0639915 5.46249 3.86635 2.03637 1.21987 4.33553 1.97939 1.95624 2.65129 1.43617 4.61511 6.15961 1.92502 1.6124 4.60775 4.00058 3.77297 4.10203 2.32335 2.68369 0.557355 6.49589 0.777617 6.38757 5.43457 2.7072 2.84448 0.989265 2.21632 2.69711 5.15384 2.24141 4.5731 3.54837 5.16895 2.87211 4.44166 0.807411 0.886284 7.5654 1.87548 4.04801 4.17004 4.67312 3.1249 2.13338 4.65811 3.4984 6.32537 3.2476 1.52223 0.702334 3.48488 1.35681 2.63382 5.64451 6.72274 5.43427 0.816272 1.76748 2.27127 1.04454 3.62044 6.96134 2.92954 10.4223 4.4536 2.49364 3.43789 1.75499 4.52257 6.23113 1.41215 2.62532 1.87131 1.33969 5.33048 6.40754 1.47354 2.33487 4.15227 1.39292 5.42 3.74725 7.6657 0.548485 2.15514 6.56552 0.953579 5.38969 9.66236 1.4189 1.73038 3.60476 4.65645 4.37833 6.86197 0.97441 1.59267 2.92954 7.26638 2.9169 1.14871 6.23113 1.6005 1.41103 1.96395 5.0197 1.67641 3.21863 2.82574 1.18491 2.49364 0.420996 7.96479 3.25489 1.19864 4.92396 0.656708 2.3713 5.43613 2.74804 1.34659 6.33092 1.77695 3.33712 3.29279 0.722385 1.13257 7.10727 6.61987 0.0767682 6.56552 5.34347 1.6312 7.34792 0.565093 0.564408 4.71809 4.23023 3.40649 6.61027 2.66127 0.660416 3.80317 3.86201 0.702334 2.43229 4.89497 3.67076 2.73121 5.76208 3.00147 3.421 1.79172 2.15914 3.26853 5.69531 1.46828 1.14002 3.24077 5.80876 6.35213 0.736596 4.57676 2.69706 0.419793 1.1149 2.87515 4.67021 2.15379 4.42295 6.44391 0.555338 0.0604902 5.45556 2.64322 3.88662 5.43863 5.28034 2.92393 1.79565 1.3862 7.77381 0.659077 1.1149 2.40191 1.68744 6.13818 1.79172 1.85208 0.254224 1.45918 4.35702 1.61169 0.472626 0.487311 6.69671 0.539742 7.64215 2.8042 1.01272 6.5373 3.88265 2.93581 6.16714 3.95375 2.27012 1.18272 0.852318 4.43003 4.7186 0.656708 8.12016 5.90356 0.656521 4.64731 1.09795 5.53067 1.66532 1.43179 4.20454 5.13357 5.90356 2.44537 3.21883 1.01569 3.80089 4.17103 1.81117 1.85116 6.56568 0.465919 4.00418 5.46028 6.4113 1.27778 1.0389 1.86748 0.792737 6.12576 3.95375 1.99494 3.64817 2.91671 0.872166 1.6005 5.33048 2.80121 0.984656 1.79152 4.43003 1.96707 3.8035 5.58699 2.09168 2.69711 3.86859 1.4837 0.0860464 0.768417 8.78408 2.20964 3.91914 5.82991 2.14938 7.24378 2.35596 1.86433 3.40288 3.53178 2.99547 3.00161 4.51288 1.59539 6.27824 0.681678 2.43081 4.0857 6.00313 1.72186 9.66236 0.892782 8.00162 0.571746 1.00086 3.16651 6.64071 3.91263 8.53981 0.412146 8.75952 1.42074 8.32415 3.82894 0.197203 2.148 1.33529 3.26312 3.25789 1.48327 1.79565 4.11178 0.99622 3.33712 5.83936 5.63167 3.61786 3.71752 0.441869 3.94156 1.50302 5.15384 2.09168 0.939628 0.502262 4.50587 0.531356 1.21098 6.3537 2.32841 8.27119 7.71033 3.26312 1.93276 10.4387 1.07825 1.6124 9.65051 5.38566 1.12682 2.14081 2.95375 1.28502 1.29693 3.72127 0.794281 0.246776 8.13307 3.59822 2.30526 3.73512 6.72274 6.15473 0.728605 1.98888 3.84875 0.668419 6.01992 0.37859 0.575274 0.285892 2.56826 5.18098 3.43789 1.18491 3.31796 1.93276 0.683947 2.30559 1.35553 4.33395 5.28673 0.779552 11.9103 4.06579 6.08942 3.40288 6.829 0.895086 0.0604902 1.99733 1.61159 4.53863 2.18525 0.761239 6.38757 3.20963 7.86569 5.72104 0.641586 1.72767 3.59127 1.01974 4.20454 1.95012 6.92758 3.00161 0.976407 0.673402 2.74926 0.362087 4.97687 0.389644 4.96866 0.55082 0.485671 7.84183 2.20776 5.27329 2.14585 0.666556 0.73739 0.388115 7.95545 0.951433 0.417872 6.59333 2.21259 0.458612 0.441296 2.36059 3.65127 5.15745 6.40821 2.63031 2.62635 4.06012 3.04305 0.974551 7.41521 4.82868 0.706564 5.06957 7.34792 1.51263 9.06054 1.38827 2.32335 0.653637 2.87211 6.47295 10.3395 0.862276 3.66094 0.89372 0.365602 4.85558 3.25917 0.459431 7.02512 7.98412 2.43229 1.52223 2.01724 4.71809 3.23351 6.10868 2.64394 1.09941 5.85596 0.27438 6.67794 2.65342 4.97687 3.13144 3.78974 3.42163 3.97241 0.455724 3.99381 5.05641 2.8536 2.94383 2.95375 5.04602 1.90145 4.42295 5.7085 0.721556 5.17292 5.73412 1.20132 8.41239 4.50245 8.45164 1.07925 0.922475 7.63139 1.1838 3.02619 1.75687 3.80089 1.25703 4.77977 7.37065 7.64215 1.97235 4.23023 5.85596 1.56966 7.9079 0.326858 12.25 1.76313 1.13049 11.9873 1.68153 10.0852 0.303602 1.15206 2.9569 6.67255 0.247905 1.41877 0.771221 7.37393 0.580979 1.02787 5.61707 3.02895 1.19511 8.7815 1.45746 1.1377 7.42333 0.775013 3.51815 1.96395 4.4536 1.19746 6.75343 2.36881 7.35988 0.782079 8.41239 0.510757 1.62944 0.192753 5.43457 0.761239 2.55857 2.46916 2.07215 5.09433 0.263105 7.19238 3.13144 0.362087 6.27671 2.94783 3.86635 6.25998 1.07925 0.68771 5.8369 1.36182 5.75263 6.81519 2.42622 2.20776 1.28627 0.391313 6.75343 2.0929 2.64322 0.616552 5.56294 1.00434 4.88696 1.96497 1.40509 2.58979 3.8035 4.43271 5.83146 4.50587 9.44486 0.695014 2.148 1.72881 4.82414 2.3713 0.461396 0.966181 8.43516 3.49677 7.04636 5.64667 1.9034 4.68453 0.641586 7.46548 0.681678 2.99879 3.32148 3.59279 1.86748 6.34052 1.62944 0.432837 3.88999 0.660416 2.1657 0.349594 3.11757 1.35721 2.97815 2.58685 1.4979 7.64373 0.317506 4.2534 1.4189 1.72186 2.54326 0.530826 7.78589 3.54623 1.07667 5.62153 6.76599 3.42906 2.32613 0.807411 3.77601 0.892782 2.21145 5.71113 2.7235 8.00079 0.465919 2.1657 2.66127 4.142 1.71245 4.51942 3.99282 0.986035 4.37749 1.60258 5.09578 6.28567 2.87515 0.659077 4.34592 6.93394 0.879104 7.65172 2.64846 3.29279 0.99622 3.38242 3.11993 1.66532 6.53391 4.31315 1.54267 2.23975 0.925467 3.74272 3.77601 4.44166 0.653637 4.10203 0.548616 8.00162 4.172 4.50552 1.65763 2.04267 0.981325 9.33045 1.022 3.67765 0.223033 6.67255 7.39191 2.16316 4.28755 1.41816 1.31639 0.820975 0.919892 6.61946 1.60258 5.39824 1.11845 5.75263 0.748673 4.45484 0.666556 3.33746 1.39734 1.07578 3.40226 0.728605 0.754779 5.60002 0.899347 1.45817 5.15745 2.82786 0.555166 1.65643 1.48173 3.59127 2.69905 3.21863 8.35988 2.52418 5.67065 3.10276 1.50302 1.87169 1.29468 2.92956 5.4202 3.09792 5.9012 0.89372 4.93866 0.432224 2.22797 4.39794 5.71113 1.14515 1.40503 1.15945 2.04878 2.63262 0.461396 6.33092 1.22842 1.95012 3.21883 6.81227 2.21259 4.89609 2.30559 1.8276 8.9343 0.409922 4.59505 0.913182 4.84125 7.45005 1.91887 6.6489 0.984656 0.800993 5.6713 1.9034 2.82834 3.94156 7.22468 1.24633 0.802869 0.459506 1.56276 2.20174 1.87169 1.47167 3.49993 1.91887 6.63606 0.689 6.03734 1.36814 9.44486 0.502262 0.706959 3.98493 4.72513 1.1191 1.65763 1.65663 0.389644 2.65342 2.4524 3.75549 7.4031 0.42446 8.57059 5.89173 1.98948 0.579236 1.87149 3.02455 6.99892 1.76748 0.744466 0.565093 5.06957 2.82786 3.65127 2.72644 1.55455 9.10387 2.69231 3.27271 1.58467 3.16879 8.04873 3.12062 0.866778 2.93581 1.18625 2.37902 6.71845 1.58472 0.772881 0.189211 4.53863 3.71346 8.53981 2.97815 5.75157 1.59267 2.28378 1.49177 3.03344 1.99165 0.403778 1.80899 9.78271 8.32415 2.7072 0.192753 1.24203 0.837577 4.77977 0.539742 0.238313 8.13461 6.28836 3.81534 4.35894 0.370076 2.92956 0.484617 7.53823 3.60476 0.617295 1.44869 9.4567 1.19511 8.90167 1.41247 0.433684 8.02432 0.96