<VTKFile type="UnstructuredGrid" version="0.1">
<UnstructuredGrid>
<Piece  NumberOfPoints="    2401" NumberOfCells="    1770">
<Points>
<DataArray type="Float64" NumberOfComponents="3" format="ascii">
-29.68 -23.1334 0 
4.62061 5.36315 0 
24.0458 -3.0619 0 
0.673225 -30.3306 0 
-12.9093 23.3862 0 
-32.2386 12.7938 0 
2.61702 45.2618 0 
-11.6771 51.6519 0 
-24.6968 31.3967 0 
36.9302 -12.9974 0 
-30.505 6.16273 0 
21.5067 -11.1692 0 
-5.93999 19.2581 0 
3.17898 -30.4159 0 
32.8371 12.1623 0 
-51.0522 9.94369 0 
-1.72467 -42.2964 0 
39.9757 4.55777 0 
-15.4236 -46.8356 0 
14.4274 -10.0805 0 
26.0843 37.5181 0 
21.033 24.5858 0 
-24.9455 -20.8981 0 
2.32295 1.14418 0 
-17.9087 34.802 0 
27.0212 -4.68401 0 
5.43045 -48.8247 0 
-13.6577 -26.5553 0 
-26.9807 7.23789 0 
-31.4399 -6.32921 0 
35.4826 30.9958 0 
-41.8987 29.1797 0 
-23.4576 38.997 0 
-16.4071 30.1886 0 
-6.41459 42.9035 0 
-9.14674 42.2128 0 
-7.59982 17.4296 0 
-4.4992 24.6059 0 
38.5392 -31.4161 0 
-47.0676 7.58439 0 
26.0736 34.6087 0 
-10.4501 -39.229 0 
18.8264 -29.9912 0 
-20.6609 32.654 0 
-45.9415 -0.84103 0 
32.1772 -10.5189 0 
-6.2099 -0.815308 0 
-13.4035 16.3377 0 
-29.2619 41.7812 0 
29.334 36.161 0 
-43.5783 -20.3466 0 
12.3156 36.3482 0 
-11.8489 -4.89954 0 
20.4986 -38.5915 0 
-12.2693 -12.293 0 
-21.0061 3.09757 0 
-4.35404 -25.1768 0 
-36.8813 28.2422 0 
48.8584 -5.16924 0 
8.59413 25.8176 0 
1.50936 -47.8486 0 
-7.85115 -45.0241 0 
24.8652 -24.0212 0 
44.9296 10.5397 0 
-29.4959 15.8753 0 
4.37068 27.3721 0 
44.1359 17.3411 0 
-32.0193 -13.6516 0 
42.6941 -23.9762 0 
6.28536 41.6703 0 
7.6712 -2.30194 0 
-26.5831 -19.5512 0 
35.0433 -35.0499 0 
-44.3047 19.7241 0 
48.7613 -7.50815 0 
-23.0366 -9.13269 0 
45.9842 -16.6321 0 
48.5812 -2.087 0 
12.5192 -22.2262 0 
0.129638 37.4601 0 
-4.52526 47.7297 0 
16.083 -18.7173 0 
-6.32505 -4.93665 0 
23.4725 33.1246 0 
26.7611 13.7416 0 
41.3516 -4.69432 0 
15.2301 45.9883 0 
-0.417508 28.1627 0 
19.072 39.326 0 
-20.457 29.0593 0 
32.4408 32.9181 0 
-14.6396 -14.3404 0 
12.524 16.2552 0 
-33.4618 -17.9177 0 
-47.0763 -8.94609 0 
18.9274 -35.048 0 
14.7286 -1.03197 0 
46.3267 -11.9313 0 
-16.0516 47.8938 0 
6.46807 -18.1429 0 
-12.2253 -39.7455 0 
-25.6873 10.8558 0 
24.877 7.07898 0 
-32.498 2.99772 0 
31.3865 -10.0529 0 
22.5229 43.2226 0 
-30.9841 -2.61383 0 
47.7219 6.83269 0 
-38.4 16.2334 0 
-39.4187 -26.6354 0 
39.297 10.578 0 
-8.97154 6.48992 0 
-10.6251 -47.9815 0 
-45.6017 4.26869 0 
-10.8681 46.3287 0 
38.0127 2.99242 0 
-19.7293 -44.5146 0 
19.0041 -42.9668 0 
24.715 -27.3696 0 
20.1675 -2.55637 0 
15.8443 40.9557 0 
-13.0526 40.7787 0 
-2.55486 42.0873 0 
20.6627 35.1155 0 
-16.2284 40.345 0 
-20.8656 24.0179 0 
5.19357 -42.6952 0 
22.7628 -20.869 0 
15.8122 28.357 0 
41.7682 -0.106223 0 
4.50917 36.1979 0 
-11.324 -1.62524 0 
-22.4016 -17.3523 0 
-6.56236 -8.70979 0 
34.4406 20.4355 0 
41.0352 -29.3829 0 
17.3493 -2.26175 0 
41.6261 20.0417 0 
37.6485 28.0127 0 
-14.8631 -40.6577 0 
-40.2066 -16.9866 0 
11.1496 36.9868 0 
6.48323 -48.5797 0 
-2.64602 7.66561 0 
25.5128 23.2129 0 
1.85187 16.2604 0 
-19.4812 -39.1677 0 
40.0107 23.0822 0 
21.2137 11.1149 0 
6.3919 21.5589 0 
-33.861 11.8288 0 
-33.2407 30.0788 0 
32.1481 16.8102 0 
23.7941 -33.2972 0 
0.815393 37.1983 0 
33.5771 28.6076 0 
5.03426 10.6984 0 
10.5641 6.09023 0 
34.5291 -27.4845 0 
-1.88456 -36.5365 0 
-42.2005 2.92558 0 
-7.28415 -7.62013 0 
24.8996 30.6274 0 
-23.2876 19.2588 0 
-28.2674 -16.526 0 
-43.4038 14.1335 0 
47.1887 -18.9988 0 
-37.2074 -19.8928 0 
-24.5668 38.3897 0 
-8.96268 -13.3801 0 
27.8363 11.2652 0 
-6.26328 -49.8863 0 
-18.509 7.82305 0 
26.5774 7.56042 0 
8.16113 37.7494 0 
48.4439 -8.09416 0 
-6.91566 13.8352 0 
-36.3042 -22.3385 0 
12.346 15.4079 0 
7.2782 -3.9983 0 
10.3985 -47.1263 0 
-40.1657 22.7813 0 
-23.6454 11.7599 0 
-1.99339 -25.5983 0 
-22.4432 25.2625 0 
23.5943 -13.9935 0 
25.5261 -20.5944 0 
5.20847 14.963 0 
-17.9301 25.041 0 
-13.6584 -6.60867 0 
-38.1264 35.1226 0 
22.7921 39.3667 0 
37.7154 -18.9219 0 
-10.9504 -35.2117 0 
28.8545 19.7508 0 
-41.7538 -0.423806 0 
21.8716 17.7575 0 
-10.0017 6.39063 0 
27.195 -9.75317 0 
48.6876 1.9361 0 
42.7592 15.1354 0 
2.63192 48.1636 0 
-0.956615 -49.9 0 
-11.4197 23.8002 0 
28.5301 39.4482 0 
-12.8698 51.0853 0 
-42.2819 -23.4598 0 
31.6381 -29.9948 0 
-1.13481 -3.21745 0 
36.9012 -24.5184 0 
10.5926 -28.893 0 
-1.83307 -50.5611 0 
24.1797 18.0753 0 
-0.69771 23.8836 0 
-15.2849 35.7829 0 
-11.1338 -23.008 0 
30.2027 -17.0193 0 
36.0839 19.1836 0 
8.26083 31.6736 0 
38.0983 -7.79944 0 
-8.49706 10.3401 0 
-12.8383 1.81356 0 
18.3036 -24.3303 0 
-17.1802 43.3918 0 
6.80256 13.6766 0 
-41.0813 -7.08439 0 
-32.7959 -27.7016 0 
-2.40726 26.3577 0 
22.3439 -16.4206 0 
20.0384 -21.9167 0 
-27.1215 -12.1202 0 
-40.258 -27.5797 0 
-32.4464 1.21649 0 
-16.9846 37.5813 0 
1.5772 42.5276 0 
-46.5959 -13.1526 0 
-24.1803 -5.24449 0 
25.7101 -41.7821 0 
-12.5356 5.57289 0 
9.88646 42.728 0 
14.6192 -27.8947 0 
-4.22525 -32.2851 0 
-15.0019 26.0848 0 
-19.7604 -0.928982 0 
11.0758 -5.84473 0 
2.65037 42.3617 0 
1.5905 7.43818 0 
-1.98137 -10.7613 0 
-36.4057 22.5625 0 
35.4048 2.8467 0 
-33.182 -35.6049 0 
39.1556 -30.1787 0 
-19.2492 40.6989 0 
39.7908 8.66771 0 
3.42304 -9.90967 0 
19.3384 -18.8195 0 
28.8067 -39.5146 0 
5.30291 -16.2855 0 
13.7712 -1.83847 0 
-28.6244 -34.9022 0 
-34.1656 30.8986 0 
17.184 -36.6134 0 
-13.253 7.93569 0 
21.6475 -17.0121 0 
6.84749 -35.0958 0 
44.7868 -21.1007 0 
-36.7819 4.22618 0 
0.825947 21.2466 0 
-26.4617 34.7502 0 
25.719 16.2027 0 
46.2425 -20.5404 0 
16.2483 23.43 0 
-17.5348 45.6719 0 
-31.0348 -21.7813 0 
5.55382 33.0327 0 
10.0325 -33.8937 0 
-8.8686 36.1489 0 
-12.2464 9.75815 0 
25.7893 41.7115 0 
-42.2424 11.2538 0 
40.1731 -5.45363 0 
7.88781 46.2608 0 
-34.7584 -17.4536 0 
18.6422 16.0905 0 
13.5375 -37.5872 0 
46.5068 0.318115 0 
44.9023 -3.59829 0 
12.5694 -31.5757 0 
-47.593 -6.27108 0 
19.7303 2.867 0 
42.7889 -17.1309 0 
-37.2855 -1.66246 0 
-1.75196 8.25314 0 
-26.2929 -12.0588 0 
32.441 10.1947 0 
20.6128 -4.54283 0 
15.7335 34.9557 0 
-1.95147 13.074 0 
-29.3834 -9.26184 0 
-2.31261 -14.1378 0 
31.8031 -1.40318 0 
42.3369 -10.3198 0 
27.0949 -6.03953 0 
-2.63194 22.03 0 
2.14775 20.553 0 
-33.7267 26.0807 0 
-45.883 15.2516 0 
-29.6413 23.1961 0 
16.8409 10.478 0 
10.3855 12.2343 0 
-40.6845 9.09609 0 
38.7666 14.7759 0 
-33.8732 -28.9971 0 
36.2713 37.0799 0 
-35.2843 6.50744 0 
35.0175 -5.90991 0 
4.31318 -37.0195 0 
-9.95524 30.8184 0 
-38.1683 -9.21669 0 
28.0825 -25.4198 0 
-28.3805 -30.3345 0 
-7.39155 36.998 0 
-32.469 19.4956 0 
-40.9032 12.6031 0 
32.8342 30.6645 0 
40.6745 -26.2845 0 
-49.2779 14.2805 0 
-26.4946 -27.6187 0 
35.5133 -18.0389 0 
-26.9916 38.4323 0 
8.12378 -4.54606 0 
-34.5146 -24.9771 0 
10.4692 -43.802 0 
28.1034 3.81974 0 
-42.2784 24.0126 0 
-11.8842 41.4168 0 
30.4374 -27.8113 0 
-21.1567 13.1214 0 
39.346 24.9303 0 
16.2702 -26.0007 0 
16.3228 -41.7018 0 
-28.0806 28.0158 0 
10.2352 -17.6312 0 
-45.9117 12.556 0 
-23.6305 -22.6917 0 
-8.18815 24.6102 0 
-27.7886 42.3763 0 
-24.4499 -2.91865 0 
-5.48 2.59065 0 
-8.58563 -22.7027 0 
45.158 7.20404 0 
-5.9764 -15.2133 0 
37.5284 -20.5024 0 
-22.4241 -28.6205 0 
-27.8679 21.6813 0 
-9.4363 15.6244 0 
-18.8065 10.2777 0 
32.9688 23.351 0 
-3.03891 48.2949 0 
-16.2515 19.5089 0 
11.3377 -38.5139 0 
-39.4119 25.3993 0 
-45.0347 -5.88326 0 
-25.2905 23.6426 0 
-16.484 -19.1996 0 
34.2673 39.3695 0 
-8.17984 51.0172 0 
20.2525 12.4561 0 
22.3649 8.05091 0 
-0.0447761 -0.739263 0 
39.7104 -16.0433 0 
-8.45409 -21.7161 0 
-26.8132 -0.171301 0 
9.39864 23.5634 0 
1.62576 -8.33905 0 
-12.9007 -42.008 0 
14.301 -16.0312 0 
0.210598 -15.498 0 
-5.52912 4.71627 0 
-17.4608 -32.0472 0 
-26.4016 3.56647 0 
-38.2775 -30.4091 0 
42.3036 -6.95811 0 
28.9589 -33.2619 0 
20.4599 43.5884 0 
-4.49281 -40.9658 0 
27.1034 28.0706 0 
-18.6592 -35.4737 0 
-3.84684 14.4602 0 
17.376 31.6979 0 
13.4096 -42.8567 0 
-4.09953 -50.3703 0 
8.11754 -28.5659 0 
45.2126 3.66014 0 
31.2176 -20.8066 0 
-16.4059 0.542153 0 
-21.0992 -10.5232 0 
31.1814 26.0591 0 
-36.1966 -6.17302 0 
-2.02464 32.1317 0 
32.4673 -37.2014 0 
-37.2276 21.2951 0 
19.0768 -8.50924 0 
-46.9794 6.11534 0 
-45.5358 -16.9064 0 
-20.8668 0.150015 0 
-7.41542 -30.4481 0 
4.05947 47.7862 0 
17.8304 -45.6058 0 
4.82053 10.0354 0 
3.29962 27.5218 0 
-35.0409 15.6196 0 
12.2408 8.19045 0 
-36.1214 -29.4939 0 
-15.052 -21.5274 0 
-4.48254 -45.3086 0 
-35.841 -32.8703 0 
-43.4177 6.37016 0 
26.9017 -38.8918 0 
15.2963 -13.594 0 
13.4477 21.528 0 
28.2834 20.5403 0 
-17.7816 -14.3843 0 
-6.89055 46.8523 0 
-40.3351 33.629 0 
-23.4749 42.4488 0 
-29.322 26.7166 0 
11.0506 29.0817 0 
-16.2704 13.4173 0 
3.52145 7.01094 0 
7.81686 -12.7039 0 
21.8931 -29.7661 0 
-19.0772 6.75471 0 
23.2891 22.8079 0 
-8.80089 -1.38255 0 
24.6563 -36.9122 0 
-17.9144 -16.8412 0 
28.3545 -26.2943 0 
-9.13194 13.7349 0 
-7.09776 32.4322 0 
-12.296 29.6136 0 
31.8404 -12.7148 0 
11.4912 -22.6254 0 
-1.50076 -45.1991 0 
-32.1605 34.5345 0 
1.03255 -43.5186 0 
-41.5436 -12.3998 0 
-40.9063 32.8037 0 
-33.0427 -9.05861 0 
1.06706 -37.0942 0 
-4.74301 -34.7538 0 
1.99972 -50.0348 0 
36.604 -29.2523 0 
-42.1602 -9.04132 0 
-5.43418 -19.5301 0 
7.70378 -39.5325 0 
48.8573 -13.391 0 
-34.4992 10.2055 0 
-4.00764 38.39 0 
8.60019 4.06192 0 
-19.3608 16.4878 0 
-23.5597 -41.5362 0 
15.7879 17.8795 0 
21.1662 31.1045 0 
3.98637 33.8307 0 
4.75097 -10.7784 0 
-15.0186 20.2441 0 
26.096 -35.4717 0 
7.33691 -24.8937 0 
15.6749 -30.0053 0 
-21.9209 -24.359 0 
2.92327 -21.9992 0 
-16.9566 -24.7371 0 
-13.8686 36.4693 0 
31.513 -36.4723 0 
-47.7543 -0.34954 0 
0.629114 -9.11434 0 
16.0811 -11.0341 0 
-0.947671 29.2135 0 
7.823 -43.314 0 
46.8138 8.99856 0 
-14.1804 -33.2972 0 
-14.8253 45.6779 0 
-4.40373 -2.68805 0 
12.8678 41.8025 0 
-34.9532 36.1981 0 
-40.017 5.59775 0 
12.834 47.1542 0 
2.15805 -5.95355 0 
7.09682 48.2939 0 
8.97586 0.662112 0 
-41.3734 -1.75097 0 
-2.07346 14.3246 0 
14.2305 7.32687 0 
[...]
<CellData Scalars="wall variable 0">
<DataArray type="Float64" Name="wall length" format="ascii">
2.42704 1.7743 2.66744 2.38794 5.91218 0.886256 2.39302 2.99663 2.98506 4.61935 5.11446 2.389 2.73605 3.62909 3.11661 7.93922 0.862169 3.60279 3.3495 3.2332 4.33499 4.8891 1.39374 4.79027 1.8596 3.48536 3.99445 0.769962 4.36252 4.49853 3.99445 3.182 4.39244 1.39723 4.16282 3.67313 2.28848 1.61575 2.78691 2.98579 2.98579 1.21901 2.8227 3.86703 4.52611 4.06228 5.71915 3.26067 3.50898 3.49167 1.77769 6.88807 2.85666 4.25068 0.687811 4.62196 3.96468 5.60033 5.1539 2.38379 3.86113 4.57303 3.06535 4.06433 3.91062 4.33697 0.686964 2.60566 7.61462 1.89722 2.85666 2.85962 4.12504 3.92789 3.94677 3.93736 1.14312 2.19067 3.83885 2.96382 2.76698 7.97163 4.11037 1.8832 3.05256 3.11661 2.11824 2.16276 3.69477 6.36709 3.38943 0.772597 4.0941 3.69336 2.3636 2.28627 3.45204 6.40176 3.37383 2.90066 3.06582 2.29299 1.32546 2.89226 3.39606 3.76048 7.28724 2.82836 1.3947 5.1414 1.49867 1.38965 1.95387 3.76875 3.82501 3.40249 3.95644 1.20649 2.90117 3.44324 4.24653 3.47179 6.50507 1.7574 1.57118 3.28082 4.20078 4.06256 4.8891 4.34751 3.45279 3.98561 1.95224 1.45136 2.41829 6.38668 1.14471 9.70836 1.44712 1.64381 10.8081 4.25136 2.52073 2.5613 3.68937 5.316 1.25672 3.79598 3.9811 2.96016 5.717 2.83149 3.83421 1.87776 5.29448 3.76332 2.24026 4.86266 4.38922 4.10541 2.90066 2.90055 3.1473 3.1473 6.09765 1.57118 3.70109 3.2332 4.02173 3.33704 2.98989 0.886256 3.11718 2.25813 2.71804 1.01152 4.61935 2.8662 6.41938 3.57546 3.87065 2.87752 7.15579 3.26885 1.86297 3.25576 3.92475 1.16507 7.15579 4.45941 3.13427 1.79102 3.05229 0.64974 1.6042 2.96642 2.94922 5.1539 4.10138 2.17533 4.49407 5.27519 1.92481 3.15006 2.89124 2.39727 1.65641 7.06401 2.74739 3.92789 3.40085 2.10451 3.12097 2.70052 4.67651 4.14237 0.59959 4.94548 0.137875 1.24172 4.03452 1.88198 5.08186 1.96488 4.0941 5.57823 6.51369 3.58493 3.72756 4.8435 1.32342 3.91079 4.43343 6.38668 3.75347 3.62039 3.02699 3.40249 0.794511 2.36391 3.40109 3.49167 2.45907 2.39998 3.43066 5.74719 3.24527 4.10138 4.06433 4.30776 3.23123 3.25017 8.45796 2.79915 2.69621 5.47684 3.58054 1.91348 5.11446 1.01152 4.32538 3.53383 2.26905 3.83012 2.29867 4.66221 1.58038 2.27233 3.91214 1.7975 5.39886 3.12165 3.35464 3.3326 2.52923 3.44324 6.09765 3.50958 3.45279 0.794511 3.82501 5.46509 1.86297 3.37548 2.17526 1.9983 4.16153 3.86347 1.82624 3.25891 3.39492 4.43378 2.05352 3.08593 5.65215 3.08677 3.90014 1.13982 3.01019 3.93736 3.3912 0.85337 8.93226 1.60917 5.91662 0.686964 3.69851 1.41034 4.39756 5.30489 4.03452 4.79353 2.03282 2.34986 2.37311 4.00656 2.28627 2.3313 6.90749 1.72843 1.24671 1.51062 4.93206 2.86065 5.717 4.58873 3.43284 3.28958 3.35464 3.33704 1.78975 3.8037 2.56351 6.81461 3.05229 1.77241 3.94727 0.339501 5.59071 2.29863 2.90365 3.93694 0.682784 3.83885 4.91006 1.58066 6.07224 2.76118 2.50354 2.96747 1.58066 0.918424 2.96074 4.41928 2.55632 2.60632 4.41928 3.07969 2.66744 8.01306 2.74472 1.13295 4.14114 3.10035 3.43284 2.86626 4.75839 1.6042 7.49842 3.24925 2.55172 2.61367 4.74922 3.09345 3.08593 2.14564 3.63258 3.421 3.80343 2.17934 4.4483 2.59513 3.05774 3.07775 7.64925 0.714822 2.99953 3.39228 3.55837 0.683985 6.93125 2.50354 3.07743 2.96108 3.17508 2.36284 2.96382 3.20479 3.13888 0.348765 7.401 1.709 3.82243 3.43066 1.7618 4.59271 2.96642 4.74922 3.12962 4.55673 0.506353 3.60279 5.05592 3.70531 2.6746 2.79937 3.28347 3.19173 3.19746 3.07775 2.89001 2.20013 6.30463 1.20649 0.829924 2.47516 3.4917 4.53369 1.40442 8.94644 3.34191 3.04529 3.75813 4.63817 2.16834 2.35094 3.12165 3.25506 2.98958 2.75087 2.8004 2.60404 1.43322 4.17927 2.96347 1.72843 1.51614 2.91208 2.91208 2.52514 3.0826 4.61553 1.30959 2.64355 8.54847 1.18462 2.02115 7.75479 0.969586 1.55362 4.22832 4.1405 1.79814 2.91208 1.33344 3.94112 1.95387 7.45964 1.09823 3.47752 0.990114 5.61912 1.61575 2.82845 2.90365 2.93234 8.26615 0.530362 2.53686 4.39244 1.22665 3.4209 3.96081 0.59959 1.56114 4.04693 1.77769 3.40109 4.84343 2.55472 2.55674 6.52902 2.85024 2.65776 1.11664 6.14986 3.57497 2.10433 4.4483 2.20663 4.57293 0.906019 1.18515 7.72254 3.8153 2.31211 5.927 3.82201 4.12369 4.05356 3.00217 5.33993 0.906019 3.99177 8.54847 2.64355 3.54194 3.8809 3.44198 2.20585 4.70659 2.88299 4.85506 3.69477 4.41587 6.07224 2.96747 3.08272 3.8037 2.76118 4.41587 1.77241 1.79102 7.53685 3.07743 3.37383 0.375612 3.78633 5.29448 4.57447 1.77023 3.50063 3.82201 3.11417 3.12034 2.50492 6.26405 4.02936 3.42211 1.49255 6.0114 2.34986 4.68645 4.66221 2.35094 8.24764 3.48918 2.82836 1.00322 3.3961 3.51114 3.87065 3.81709 2.82836 7.75479 2.17251 1.29011 3.30858 3.53345 2.50892 2.48744 2.91208 1.79814 3.47024 3.47752 3.38141 3.54206 2.42704 7.01833 0.842237 2.4673 3.30428 2.19881 2.86626 4.58873 2.94228 2.83387 4.67851 1.32958 5.48926 3.37414 5.316 3.6972 2.31597 1.49867 3.05256 3.33433 3.8809 2.38532 1.14471 1.30355 7.93922 2.3313 2.3636 1.77023 2.0565 2.85692 2.3313 4.14114 4.75384 4.01505 2.10451 4.91667 1.26484 5.98773 2.6746 4.19987 2.03317 0.86773 3.96081 3.19534 2.86548 4.17772 3.22487 3.22487 2.75087 2.8227 4.96471 2.87752 3.51114 4.1092 2.71186 3.3326 3.28958 3.10035 1.26484 3.93249 2.7415 3.30701 3.1473 3.20364 1.44712 0.37837 4.95659 3.11411 7.89378 2.93234 2.29863 2.29942 1.34083 1.65641 2.64355 2.64355 3.89826 3.98335 3.5133 3.30701 3.3199 4.35086 3.1473 3.30701 1.18462 3.99177 3.33433 1.8832 2.88086 1.91348 3.977 1.709 2.63678 2.21269 4.39697 4.35617 2.86027 2.51333 2.49589 2.85466 4.70659 3.47753 3.79598 3.69826 3.67241 2.0565 4.57447 1.87776 2.24305 2.51211 0.966042 0.304965 2.45365 4.43343 1.85916 2.94212 5.58171 4.1405 0.619734 5.57823 0.772597 4.27824 3.15062 1.94257 3.50898 3.48632 3.30858 9.71126 2.45907 3.11411 3.11411 2.39727 4.12504 3.21053 1.40411 3.05814 2.9616 2.82702 6.32781 1.24671 2.96016 1.14312 2.80617 3.12486 2.60547 2.37311 6.0114 2.21453 4.01505 3.53951 3.89754 3.61924 5.88313 3.12097 9.70836 2.38532 3.54194 3.5133 3.40927 0.37837 2.12992 2.12873 3.93249 4.91667 3.40085 0.710224 2.7279 0.965887 4.26971 3.98997 2.7279 8.07273 1.53782 9.88879 0.915441 4.20078 1.64047 4.37324 3.48717 4.62196 4.94295 3.78947 2.09308 2.60645 3.14416 4.62667 3.41716 3.6027 3.55561 2.65776 3.04802 0.339501 3.77383 3.63986 2.59922 5.36624 6.24022 3.69826 3.5676 3.73464 3.49338 3.37548 5.27123 6.38965 3.22142 2.86548 2.98958 1.22772 5.49197 0.638888 4.10401 4.38922 4.35086 1.52554 1.6815 5.46274 5.5119 4.22707 2.7415 2.12873 5.49046 3.40096 7.89378 3.11411 3.3582 2.52514 2.48744 1.09823 3.46858 3.12486 4.59783 4.9635 1.92481 1.26045 7.50415 3.11417 5.927 5.01569 4.08834 1.50313 5.25615 3.39446 6.41938 0.433149 2.8533 3.48953 4.58328 4.20156 2.29299 4.03452 4.00413 3.34191 4.85445 4.55722 3.15062 4.42676 0.965887 3.25632 4.18133 1.7618 3.19496 6.22066 1.92144 2.47516 2.38418 3.77599 1.7975 0.506353 7.47848 0.863511 2.17251 2.02115 1.94257 4.55722 0.966042 7.71347 2.44031 3.17508 1.90372 3.5676 4.27824 3.38943 3.01927 0.335256 2.96086 4.26971 4.42676 4.58328 3.45431 3.28199 3.20905 3.30735 3.36569 1.96767 3.79693 2.82836 7.28724 2.31597 3.82284 3.63986 9.63982 1.52554 3.3199 2.8233 3.89826 1.30959 3.04813 3.3495 3.19173 3.16427 5.1938 0.285202 2.24501 3.83012 3.19805 3.23017 1.64047 3.28082 2.21405 2.98934 1.13982 3.91935 0.842237 2.70167 2.99663 2.72263 4.28669 2.54418 1.38538 2.04041 3.00346 0.333799 4.39756 2.66976 2.63098 2.8533 5.48354 0.528051 4.62667 4.24148 5.90904 2.97143 2.49433 1.64309 3.58493 2.45365 4.90422 2.68454 2.76698 2.36284 2.44031 2.3544 2.99953 1.7574 3.76514 4.14696 1.39876 2.21405 4.34751 4.33499 3.70109 4.14696 1.51554 1.57362 4.94295 0.687811 5.06239 1.18515 3.50063 3.48143 2.55119 3.20116 1.39374 4.06256 0.915441 2.8555 2.47754 2.11824 3.62909 0.285202 2.5708 2.47754 4.85445 3.25506 5.39886 3.77599 4.66398 3.53383 1.39749 6.85331 2.55472 2.2636 4.83937 1.38538 3.40077 2.86983 0.612519 3.47179 0.163558 5.81988 2.19067 2.21453 1.49255 6.87138 0.918424 4.91006 1.95224 2.45978 2.56351 3.08272 2.60632 7.64525 1.52375 3.14366 2.5613 6.16463 5.01569 2.31211 1.14611 4.17772 3.22142 2.10433 4.80286 1.93462 1.11664 3.55561 6.29849 2.59513 2.03317 4.94304 1.52837 3.39606 2.01522 1.40442 4.99604 3.42211 2.3832 2.38794 3.07969 2.96074 6.87138 5.49197 2.60965 2.59922 3.82284 3.6972 3.68937 3.14366 2.70052 5.88313 3.65168 4.57303 1.71881 4.94304 4.19987 3.70531 4.72044 4.87123 3.53294 4.86294 3.04211 3.48143 6.26405 0.949408 3.28199 2.79056 6.52902 0.892798 2.17526 3.49338 0.585596 3.4605 3.40077 2.54418 7.75388 2.09308 4.20541 1.3947 3.81709 3.57546 3.39446 2.50852 5.48497 3.93694 2.82845 2.28848 3.57718 3.3912 3.94677 2.74739 2.74739 2.60404 3.166 5.65215 3.09345 3.79801 2.74663 3.20116 8.5996 2.94228 1.78975 4.02173 4.79027 3.3582 3.05814 3.45204 3.45204 4.00656 2.96347 3.38141 7.33342 1.22665 3.182 3.48536 3.80309 4.85506 2.85873 8.45796 2.88086 4.11037 7.75388 2.63098 3.7573 1.08017 2.24026 3.45491 2.60645 2.85466 3.19619 3.53597 3.48683 2.79915 2.85873 2.88299 2.20585 4.90967 3.12251 2.9616 3.9811 3.47753 2.17934 3.41734 3.62039 1.49884 5.90904 0.304965 2.12528 2.20663 8.26615 0.86773 4.99604 4.53369 2.93488 2.38379 2.94922 4.59271 4.18133 1.28234 3.27015 4.20156 4.66398 2.38418 0.829924 7.46934 1.32546 8.01306 1.7743 3.54206 3.80309 1.8596 2.70815 0.969586 2.50892 3.87138 2.33234 0.918783 2.96226 6.24407 5.54469 4.03452 3.06582 4.10541 4.10401 3.57718 3.67313 4.1092 3.3961 5.38173 0.682784 0.961114 3.73464 1.90372 2.96108 7.53685 3.13427 3.166 2.8004 3.22487 5.73137 0.150921 0.85337 1.00322 3.79693 3.77383 3.94727 5.38173 4.16153 3.33706 2.99143 3.00217 1.92355 5.15196 0.57258 3.12251 1.62457 1.56344 3.19805 2.26905 4.83937 2.84613 2.82702 0.496068 1.92355 4.05356 1.36622 2.94212 1.98866 6.88721 3.50713 2.78691 5.61912 4.14329 3.82005 3.15923 7.49842 2.17533 3.24527 3.5078 3.3966 3.98561 3.50958 3.26885 0.64974 6.81461 2.45978 2.47754 2.90619 3.23017 1.56344 7.01527 7.401 3.48555 2.63848 3.86703 0.5517 2.63678 1.6856 3.87003 3.12962 2.61367 2.25482 4.18197 5.54469 0.638888 2.13491 2.82443 3.04529 4.00413 2.67937 6.1071 1.45136 1.52375 2.41454 3.03123 2.74472 2.70815 4.49853 0.501056 3.03123 4.62106 2.20013 0.742164 7.12864 2.98579 3.50713 2.2018 3.6027 2.73329 0.742164 2.89001 3.05774 6.29849 8.5996 2.55119 3.04211 4.36283 4.37365 2.5213 2.83387 2.17129 1.88198 5.30489 2.60547 3.46858 4.03882 3.00346 4.49399 3.38814 0.335256 7.54813 1.51554 3.76514 6.50507 0.612519 8.76823 3.55837 3.38268 2.24305 4.86266 1.08017 6.54193 5.74719 3.82243 2.86027 2.86748 4.93206 3.09409 3.76332 3.78633 3.98699 1.32617 3.96468 3.48717 3.45491 3.45431 3.48953 4.24148 3.14416 2.85024 2.79056 0.57258 10.232 1.58038 4.68645 3.09151 3.86347 2.6054 2.72263 2.73605 3.16427 3.16427 3.28347 1.95345 2.4673 4.28669 2.6054 2.79937 5.98773 3.79801 3.80343 0.977005 5.31039 2.51333 3.83421 2.85494 2.19881 6.055 5.51206 2.54954 3.53951 4.75384 4.75839 2.49589 5.31039 3.83463 3.19619 7.33342 3.30428 1.95345 3.19534 3.4209 4.54211 4.47735 4.67851 2.5213 3.40801 3.39228 2.3544 7.71347 2.51211 3.38268 3.87138 3.53345 3.48632 3.26067 0.899653 2.66976 1.41034 2.7979 0.683985 6.54193 3.7573 3.90014 1.0675 4.39697 5.35235 4.56971 1.16507 1.59555 2.85692 3.67241 6.24022 0.961114 4.45941 3.57497 5.33993 2.99143 4.19083 4.80286 7.97163 2.68454 1.17955 4.59783 2.80617 1.57844 5.36624 2.60965 1.22772 4.17927 4.61661 0.137875 2.84972 1.39749 4.32538 2.71804 8.37501 2.87948 3.24925 3.15923 2.67739 5.71184 7.01833 2.39302 2.98989 2.98506 2.70167 2.52923 2.71186 4.22707 1.47044 0.163558 4.24653 4.8435 2.38369 1.39723 2.53686 6.99968 7.64925 3.19746 3.95644 3.02699 3.41734 4.90422 0.714822 1.56553 3.91062 1.43263 3.15006 4.9635 1.17955 9.71126 1.29011 0.863511 3.20884 1.6856 3.81272 3.20479 2.39998 3.13888 3.81272 4.18197 6.9651 3.94112 3.96065 3.25576 5.46509 3.76875 2.89124 1.43263 7.61462 3.22849 4.58383 2.87751 3.44247 3.21053 2.85962 5.60033 1.32617 4.02936 2.03282 3.46614 3.11718 5.91218 2.3832 3.86113 3.27015 4.12595 4.67651 1.71881 1.13295 4.62106 2.41454 7.64525 2.55632 4.84343 2.36391 3.09409 1.51062 6.32781 2.84613 2.2636 3.08677 2.74663 2.85494 2.83149 2.86065 2.86748 4.35617 1.0675 1.64381 3.20364 2.90055 3.76048 1.52837 4.87123 0.603385 1.53269 2.96226 3.45967 4.03882 1.26045 5.27519 3.90238 4.61661 1.43322 2.74739 7.06401 1.34083 3.92475 3.96065 1.33344 1.51614 6.90749 2.3313 1.59555 2.29942 5.59071 3.04802 1.57844 3.90238 2.96086 3.38814 0.377933 5.49046 2.12992 3.98997 1.20632 1.98866 1.85916 3.91079 1.41695 6.22066 2.5708 5.1938 3.16427 2.389 2.29867 2.24501 2.90619 4.94548 2.55674 6.85331 2.84972 1.53782 2.89561 5.73137 3.22487 1.14611 3.8153 2.08103 3.44198 2.16276 2.47754 7.01527 1.62457 4.90967 3.41716 0.528051 2.83701 2.98579 7.12864 2.73329 2.49433 2.67679 2.67937 0.501056 4.36252 4.7627 3.98335 2.8233 3.30701 4.95659 3.40927 2.19531 2.90117 6.30463 2.2018 3.82005 1.49884 3.75347 2.41829 6.1071 2.67679 2.97143 6.40176 3.45204 1.40411 3.44247 3.98699 0.375612 3.47024 7.45964 1.38965 2.19531 4.14329 0.990114 0.892798 6.14986 1.93462 4.19083 3.33706 1.9983 1.57362 8.76823 2.86983 3.4605 3.78947 0.899653 6.88807 4.04693 4.45112 2.33234 4.23968 6.88721 1.20632 3.19496 3.91214 0.451154 4.54933 5.35235 2.21269 0.5517 5.71915 1.56553 6.93125 2.7979 3.69851 4.33697 1.39876 5.06239 4.25068 1.89722 3.01019 2.98934 5.15196 0.496068 4.23968 2.27233 10.232 1.55362 6.24407 1.53269 4.49407 2.87751 2.25989 2.12528 5.58171 1.36622 4.12369 4.57293 1.56114 5.08186 2.17129 3.45967 0.918783 4.45112 0.433149 2.8662 4.96471 1.21901 2.83701 5.48354 1.24172 8.37501 2.25813 3.46614 4.79353 2.04041 5.81988 1.47044 3.40096 0.377933 4.49399 1.30355 10.8081 0.603385 4.72044 5.05592 0.862169 0.348765 6.9651 2.25482 2.55172 2.87948 1.02907 3.48555 0.585596 6.38965 0.585692 2.92598 5.469 3.20905 0.333799 7.54813 3.01927 6.36709 0.502115 1.60917 0.218322 6.51369 0.619734 4.22832 2.25989 4.58383 7.46934 8.94644 2.01522 2.89226 2.08103 7.72254 2.8555 9.88879 3.91935 8.93226 0.150921 2.89561 4.37324 1.32342 6.99968 0.530362 2.93488 3.4917 1.92144 1.41695 0.502115 3.69336 1.96488 0.218322 3.22849 2.60566 5.91662 4.55673 3.87003 3.20884 7.47848 1.02907 5.71184 1.37382 3.00856 4.52611 2.63848 3.25632 8.07273 0.710224 4.14237 4.12595 1.28234 0.769962 4.16282 2.38369 3.72756 1.64309 4.7627 
</DataArray>
<DataArray type="Float64" Name="wall variable 0" format="ascii">
0 0 0 0 0 0 0 0 0 0 0 0 0 0 0 0 0 0 0 0 0 0 0 0 0 0 0 0 0 0 0 0 0 0 0 0 0 0 0 0 0 0 0 0 0 0 0 0 0 0 0 0 0 0 0 0 0 0 0 0 0 0 0 0 0 0 0 0 0 0 0 0 0 0 0 0 0 0 0 0 0 0 0 0 0 0 0 0 0 0 0 0 0 0 0 0 0 0 0 0 0 0 0 0 0 0 0 0 0 0 0 0 0 0 0 0 0 0 0 0 0 0 0 0 0 0 0 0 0 0 0 0 0 0 0 0 0 0 0 0 0 0 0 0 0 0 0 0 0 0 0 0 0 0 0 0 0 0 0 0 0 0 0 0 0 0 0 0 0 0 0 0 0 0 0 0 0 0 0 0 0 0 0 0 0 0 0 0 0 0 0 0 0 0 0 0 0 0 0 0 0 0 0 0 0 0 0 0 0 0 0 0 0 0 0 0 0 0 0 0 0 0 0 0 0 0 0 0 0 0 0 0 0 0 0 0 0 0 0 0 0 0 0 0 0 0 0 0 0 0 0 0 0 0 0 0 0 0 0 0 0 0 0 0 0 0 0 0 0 0 0 0 0 0 0 0 0 0 0 0 0 0 0 0 0 0 0 0 0 0 0 0 0 0 0 0 0 0 0 0 0 0 0 0 0 0 0 0 0 0 0 0 0 0 0 0 0 0 0 0 0 0 0 0 0 0 0 0 0 0 0 0 0 0 0 0 0 0 0 0 0 0 0 0 0 0 0 0 0 0 0 0 0 0 0 0 0 0 0 0 0 0 0 0 0 0 0 0 0 0 0 0 0 0 0 0 0 0 0 0 0 0 0 0 0 0 0 0 0 0 0 0 0 0 0 0 0 0 0 0 0 0 0 0 0 0 0 0 0 0 0 0 0 0 0 0 0 0 0 0 0 0 0 0 0 0 0 0 0 0 0 0 0 0 0 0 0 0 0 0 0 0 0 0 0 0 0 0 0 0 0 0 0 0 0 0 0 0 0 0 0 0 0 0 0 0 0 0 0 0 0 0 0 0 0 0 0 0 0 0 0 0 0 0 0 0 0 0 0 0 0 0 0 0 0 0 0 0 0 0 0 0 0 0 0 0 0 0 0 0 0 0 0 0 0 0 0 0 0 0 0 0 0 0 0 0 0 0 0 0 0 0 0 0 0 0 0 0 0 0 0 0 0 0 0 0 0 0 0 0 0 0 0 0 0 0 0 0 0 0 0 0 0 0 0 0 0 0 0 0 0 0 0 0 0 0 0 0 0 0 0 0 0 0 0 0 0 0 0 0 0 0 0 0 0 0 0 0 0 0 0 0 0 0 0 0 0 0 0 0 0 0 0 0 0 0 0 0 0 0 0 0 0 0 0 0 0 0 0 0 0 0 0 0 0 0 0 0 0 0 0 0 0 0 0 0 0 0 0 0 0 0 0 0 0 0 0 0 0 0 0 0 0 0 0 0 0 0 0 0 0 0 0 0 0 0 0 0 0 0 0 0 0 0 0 0 0 0 0 0 0 0 0 0 0 0 0 0 0 0 0 0 0 0 0 0 0 0 0 0 0 0 0 0 0 0 0 0 0 0 0 0 0 0 0 0 0 0 0 0 0 0 0 0 0 0 0 0 0 0 0 0 0 0 0 0 0 0 0 0 0 0 0 0 0 0 0 0 0 0 0 0 0 0 0 0 0 0 0 0 0 0 0 0 0 0 0 0 0 0 0 0 0 0 0 0 0 0 0 0 0 0 0 0 0 0 0 0 0 0 0 0 0 0 0 0 0 0 0 0 0 0 0 0 0 0 0 0 0 0 0 0 0 0 0 0 0 0 0 0 0 0 0 0 0 0 0 0 0 0 0 0 0 0 0 0 0 0 0 0 0 0 0 0 0 0 0 0 0 0 0 0 0 0 0 0 0 0 0 0 0 0 0 0 0 0 0 0 0 0 0 0 0 0 0 0 0 0 0 0 0 0 0 0 0 0 0 0 0 0 0 0 0 0 0 0 0 0 0 0 0 0 0 0 0 0 0 0 0 0 0 0 0 0 0 0 0 0 0 0 0 0 0 0 0 0 0 0 0 0 0 0 0 0 0 0 0 0 0 0 0 0 0 0 0 0 0 0 0 0 0 0 0 0 0 0 0 0 0 0 0 0 0 0 0 0 0 0 0 0 0 0 0 0 0 0 0 0 0 0 0 0 0 0 0 0 0 0 0 0 0 0 0 0 0 0 0 0 0 0 0 0 0 0 0 0 0 0 0 0 0 0 0 0 0 0 0 0 0 0 0 0 0 0 0 0 0 0 0 0 0 0 0 0 0 0 0 0 0 0 0 0 0 0 0 0 0 0 0 0 0 0 0 0 0 0 0 0 0 0 0 0 0 0 0 0 0 0 0 0 0 0 0 0 0 0 0 0 0 0 0 0 0 0 0 0 0 0 0 0 0 0 0 0 0 0 0 0 0 0 0 0 0 0 0 0 0 0 0 0 0 0 0 0 0 0 0 0 0 0 0 0 0 0 0 0 0 0 0 0 0 0 0 0 0 0 0 0 0 0 0 0 0 0 0 0 0 0 0 0 0 0 0 0 0 0 0 0 0 0 0 0 0 0 0 0 0 0 0 0 0 0 0 0 0 0 0 0 0 0 0 0 0 0 0 0 0 0 0 0 0 0 0 0 0 0 0 0 0 0 0 0 0 0 0 0 0 0 0 0 0 0 0 0 0 0 0 0 0 0 0 0 0 0 0 0 0 0 0 0 0 0 0 0 0 0 0 0 0 0 0 0 0 0 0 0 0 0 0 0 0 0 0 0 0 0 0 0 0 0 0 0 0 0 0 0 0 0 0 0 0 0 0 0 0 0 0 0 0 0 0 0 0 0 0 0 0 0 0 0 0 0 0 0 0 0 0 0 0 0 0 0 0 0 0 0 0 0 0 0 0 0 0 0 0 0 0 0 0 0 0 0 0 0 0 0 0 0 0 0 0 0 0 0 0 0 0 0 0 0 0 0 0 0 0 0 0 0 0 0 0 0 0 0 0 0 0 0 0 0 0 0 0 0 0 0 0 0 0 0 0 0 0 0 0 0 0 0 0 0 0 0 0 0 0 0 0 0 0 0 0 0 0 0 0 0 0 0 0 0 0 0 0 0 0 0 0 0 0 0 0 0 0 0 0 0 0 0 0 0 0 0 0 0 0 0 0 0 0 0 0 0 0 0 0 0 0 0 0 0 0 0 0 0 0 0 0 0 0 0 0 0 0 0 0 0 0 0 0 0 0 0 0 0 0 0 0 0 0 0 0 0 0 0 0 0 0 0 0 0 0 0 0 0 0 0 0 0 0 0 0 0 0 0 0 0 0 0 0 0 0 0 0 0 0 0 0 0 0 0 0 0 0 0 0 0 0 0 0 0 0 0 0 0 0 0 0 0 0 0 0 0 0 0 0 0 0 0 0 0 0 0 0 0 0 0 0 0 0 0 0 0 0 0 0 0 0 0 0 0 0 0 0 0 0 0 0 0 0 0 0 0 0 0 0 0 0 0 0 0 0 0 0 0 0 0 0 0 0 0 0 0 0 0 0 0 0 0 0 0 0 0 0 0 0 0 0 0 0 0 0 0 0 0 0 0 0 0 0 0 0 0 0 0 0 0 0 0 0 0 0 0 0 0 0 0 0 0 0 0 0 0 0 0 0 0 0 0 0 0 0 0 0 0 0 0 0 0 0 0 0 0 0 0 0 0 0 0 0 0 0 0 0 0 0 0 0 0 0 0 0 0 0 0 0 0 0 0 0 0 0 0 0 0 0 0 0 0 0 0 0 0 0 0 0 0 0 0 0 0 0 0 0 0 0 0 0 0 0 0 0 0 0 0 0 0 0 0 0 0 0 0 0 0 0 0 0 0 0 0 0 0 0 0 0 0 0 0 0 0 0 0 0 0 0 0 0 0 0 0 
</DataArray>
<DataArray type="Float64" Name="wall variable 1" format="ascii">