<VTKFile type="UnstructuredGrid" version="0.1">
<UnstructuredGrid>
<Piece  NumberOfPoints="    2414" NumberOfCells="     403">
<Points>
<DataArray type="Float64" NumberOfComponents="3" format="ascii">
1.09508 -13.8174 0.0
-0.181382 -9.68593 0.0
-1.50042 -9.47404 0.0
-2.08126 -9.78874 0.0
-3.5728 -13.7011 0.0
-3.10056 -15.0216 0.0
37.7751 25.2155 0.0
38.0457 25.2047 0.0
41.4741 30.9685 0.0
34.366 30.3956 0.0
34.4771 29.7074 0.0
36.367 27.1486 0.0
-23.0654 8.45895 0.0
-18.6654 14.173 0.0
-23.7425 15.9218 0.0
-11.1641 46.8265 0.0
-11.4159 44.5311 0.0
-2.47645 45.993 0.0
-2.61173 47.0502 0.0
-7.15861 49.5149 0.0
-7.63984 49.3474 0.0
-30.0893 -43.036 0.0
-30.3498 -39.2176 0.0
-34.6557 -40.5476 0.0
-32.685 -45.7003 0.0
-30.5087 -38.7642 0.0
-30.4317 -37.6814 0.0
-34.2381 -34.9831 0.0
-36.752 -35.8324 0.0
-36.5543 -36.2567 0.0
-34.8146 -40.0942 0.0
14.27 -7.58363 0.0
17.6172 -6.31161 0.0
18.0987 -2.39434 0.0
14.1681 -2.49611 0.0
12.7443 -5.95588 0.0
12.211 37.3182 0.0
14.2408 37.0237 0.0
15.5991 37.4636 0.0
16.3289 41.471 0.0
12.8377 42.4517 0.0
12.4231 42.3972 0.0
21.4235 -26.6591 0.0
21.7961 -27.5036 0.0
28.6479 -29.2543 0.0
27.7122 -23.6194 0.0
25.4713 -23.6303 0.0
24.5716 -23.7091 0.0
21.5075 -25.5576 0.0
-25.0083 -37.5335 0.0
-25.5812 -37.9039 0.0
-23.0583 -44.45 0.0
-21.3312 -45.5989 0.0
-18.9057 -44.3346 0.0
-18.5325 -43.6523 0.0
-18.5424 -41.2805 0.0
-23.6006 -38.0688 0.0
-24.1751 -37.7109 0.0
-24.7336 -37.5801 0.0
10.4362 37.4302 0.0
11.8188 37.3523 0.0
12.0309 42.4314 0.0
8.35711 42.1331 0.0
7.90524 39.335 0.0
8.42225 38.5488 0.0
6.28635 -44.2147 0.0
6.61776 -44.1637 0.0
3.4545 -38.0532 0.0
0.885589 -37.5574 0.0
0.289772 -37.677 0.0
-0.534005 -39.4451 0.0
40.5491 -32.1017 0.0
44.125 -30.1875 0.0
41.84 -26.9768 0.0
40.8021 -27.092 0.0
38.4887 -28.7119 0.0
38.1256 -30.2869 0.0
38.1115 -31.7544 0.0
-25.8163 -36.8297 0.0
-26.4162 -33.7695 0.0
-33.039 -31.3699 0.0
-33.6297 -32.5924 0.0
-33.8606 -34.6967 0.0
-30.0542 -37.395 0.0
-26.3892 -37.2 0.0
48.8689 -24.967 0.0
49.7427 -25.7012 0.0
51.4502 -18.9516 0.0
50.2422 -17.5961 0.0
47.8394 -17.303 0.0
47.5783 -17.7894 0.0
-59.9718 -12.8256 0.0
-58.042 -14.3735 0.0
-51.8966 -13.3024 0.0
-54.35 -11.3846 0.0
-61.4081 -8.5828 0.0
-61.42 -8.64881 0.0
-14.5928 39.9136 0.0
-18.8879 38.8336 0.0
-16.8443 33.2989 0.0
-14.7234 34.3651 0.0
-14.2409 35.2166 0.0
43.2539 8.41776 0.0
49.222 7.95908 0.0
53.6738 10.4843 0.0
53.3351 11.213 0.0
47.054 12.8739 0.0
45.4499 11.0329 0.0
46.8759 14.2311 0.0
47.292 13.3461 0.0
53.5731 11.6852 0.0
53.0036 17.5357 0.0
51.1983 18.6871 0.0
38.1279 -44.551 0.0
37.5293 -43.458 0.0
36.8719 -43.5876 0.0
31.6213 -46.2524 0.0
30.2231 -49.0657 0.0
30.602 -49.7578 0.0
32.7916 -51.2233 0.0
-53.8222 -11.1002 0.0
-51.3689 -13.0179 0.0
-50.3966 -13.4162 0.0
-48.9992 -8.193 0.0
-49.8621 -6.63717 0.0
-54.2711 -5.9056 0.0
-55.5075 -5.73306 0.0
-11.6093 -8.28696 0.0
-8.54763 -8.56474 0.0
-6.30206 -7.77896 0.0
-12.0819 -1.7113 0.0
-12.5564 -1.64286 0.0
27.8767 31.8008 0.0
31.3494 33.4677 0.0
31.3763 33.7226 0.0
31.6097 35.9924 0.0
31.037 37.0703 0.0
26.6598 40.0339 0.0
26.266 39.8706 0.0
-31.7714 15.9276 0.0
-30.1233 17.0636 0.0
-30.6105 21.8173 0.0
-30.8139 23.8537 0.0
-35.8257 23.2156 0.0
-33.8552 19.6702 0.0
-13.7864 35.4062 0.0
-10.478 36.8457 0.0
-8.0902 41.2268 0.0
-13.4935 40.7323 0.0
-14.1383 40.1033 0.0
25.6516 -6.03191 0.0
25.6124 -6.25416 0.0
28.8194 -10.5492 0.0
32.2296 -10.4392 0.0
37.2003 -10.1995 0.0
38.5916 -9.03842 0.0
-43.0226 0.497944 0.0
-42.7247 0.387222 0.0
-40.7538 6.28911 0.0
-42.2982 7.83707 0.0
-44.5614 9.52229 0.0
-43.8385 3.91951 0.0
-1.52142 20.6742 0.0
-2.91845 17.3289 0.0
-2.2898 15.5586 0.0
1.51785 17.1191 0.0
3.04967 18.555 0.0
4.20545 19.843 0.0
0.0339675 23.7344 0.0
50.0392 -25.9144 0.0
50.1164 -26.0173 0.0
54.0643 -24.2632 0.0
55.2078 -22.6562 0.0
51.7467 -19.1648 0.0
47.29 -17.9213 0.0
44.5786 -19.7769 0.0
45.6246 -25.453 0.0
48.5807 -25.099 0.0
8.25332 51.2178 0.0
9.06415 53.2166 0.0
4.38493 57.4025 0.0
4.20879 56.9245 0.0
3.38636 54.033 0.0
3.89509 52.2892 0.0
30.2578 8.12175 0.0
30.9883 9.16608 0.0
29.4823 12.811 0.0
26.4915 9.2825 0.0
25.4523 6.38535 0.0
29.1121 7.40002 0.0
-37.0088 -36.5179 0.0
-37.2065 -36.0937 0.0
-37.5334 -36.0754 0.0
-40.7792 -40.5336 0.0
-36.8798 -44.3667 0.0
0.33551 -48.5072 0.0
-0.64876 -47.8925 0.0
-2.54153 -48.4047 0.0
-4.65911 -51.2571 0.0
-4.24625 -53.0318 0.0
-3.6733 -55.3202 0.0
-0.134918 -55.6653 0.0
37.2651 -32.1405 0.0
37.2792 -30.6731 0.0
27.9495 -33.939 0.0
27.7098 -34.3246 0.0
29.1404 -36.3319 0.0
29.3594 -36.4165 0.0
29.4169 -36.4226 0.0
34.9179 -33.4753 0.0
-31.4051 -13.3114 0.0
-31.5706 -13.6695 0.0
-30.407 -15.8573 0.0
-26.4281 -16.1783 0.0
-23.3009 -15.2668 0.0
-23.8029 -12.115 0.0
1.75697 38.4747 0.0
4.50596 37.6627 0.0
7.392 39.416 0.0
7.84388 42.2141 0.0
7.68266 42.5755 0.0
5.98619 44.1384 0.0
5.26642 44.1873 0.0
4.02887 43.8107 0.0
44.898 11.3636 0.0
46.5021 13.2046 0.0
46.086 14.0897 0.0
42.2782 15.4492 0.0
39.9185 14.7441 0.0
39.2936 14.1424 0.0
39.3486 13.0066 0.0
62.1962 1.8235 0.0
61.3917 7.13979 0.0
61.1473 7.37 0.0
58.1398 6.61674 0.0
58.1206 -2.44611 0.0
7.42554 3.93134 0.0
5.80555 4.45153 0.0
3.53096 2.83584 0.0
4.27718 -1.00802 0.0
5.19144 -1.18525 0.0
8.08795 -0.421065 0.0
20.9439 48.321 0.0
22.2374 45.5699 0.0
26.0315 48.6242 0.0
27.8927 51.0957 0.0
27.2915 51.9887 0.0
26.0768 52.5778 0.0
34.9788 -19.9513 0.0
35.9186 -20.3113 0.0
46.7186 -15.2083 0.0
46.7728 -14.6706 0.0
46.3849 -12.4993 0.0
45.514 -12.3372 0.0
40.9089 -14.9347 0.0
-31.3011 48.6658 0.0
-32.9384 47.1177 0.0
-32.4902 46.0866 0.0
-28.2943 44.5637 0.0
-26.9942 45.2456 0.0
-26.5649 45.731 0.0
-24.8867 50.3231 0.0
56.8814 -5.25022 0.0
57.3365 -3.78488 0.0
54.9616 5.39251 0.0
53.701 3.10896 0.0
53.5525 1.15229 0.0
54.3731 -1.02051 0.0
56.0476 -5.53877 0.0
3.69136 57.2274 0.0
3.86749 57.7054 0.0
3.52238 58.9394 0.0
2.52507 59.2626 0.0
1.95792 59.2594 0.0
-1.86531 57.2028 0.0
-1.57519 53.6057 0.0
57.4808 -3.43689 0.0
57.8183 -2.44009 0.0
57.8375 6.62276 0.0
55.7961 7.43442 0.0
55.1059 5.74049 0.0
32.5601 -20.9105 0.0
32.0527 -21.2486 0.0
31.838 -27.6508 0.0
36.3433 -22.6002 0.0
35.0916 -21.0376 0.0
34.1517 -20.6777 0.0
-24.0973 -8.57026 0.0
-24.0987 -8.13488 0.0
-31.5567 -4.9323 0.0
-33.187 -5.37832 0.0
-31.3756 -9.84548 0.0
19.761 59.155 0.0
18.0059 59.1025 0.0
15.8203 52.5852 0.0
15.8981 52.4636 0.0
17.0082 51.7856 0.0
19.221 52.0722 0.0
21.3074 54.6433 0.0
-43.4266 -27.1911 0.0
-42.6208 -28.2018 0.0
-34.5294 -31.9772 0.0
-33.9387 -30.7548 0.0
-33.9919 -30.2795 0.0
-37.5137 -27.8641 0.0
-40.7853 -25.6818 0.0
-42.4708 -25.5745 0.0
-43.2982 -26.0568 0.0
2.18937 -18.8568 0.0
3.32157 -22.0458 0.0
7.44621 -20.3926 0.0
7.46015 -19.9189 0.0
3.59876 -17.0476 0.0
2.18466 -16.1507 0.0
14.3435 -10.0331 0.0
12.9516 -14.1611 0.0
15.8174 -16.3306 0.0
16.2689 -16.3871 0.0
17.127 -16.3503 0.0
19.9666 -10.9077 0.0
-23.6925 -2.90881 0.0
-25.0798 2.83347 0.0
-30.1265 1.56176 0.0
-30.8959 1.35008 0.0
-28.8795 -2.27637 0.0
-23.833 -37.1045 0.0
-23.2586 -37.4624 0.0
-14.8434 -36.4908 0.0
-14.8669 -34.4208 0.0
-17.0714 -33.2756 0.0
14.7452 -24.9335 0.0
15.4025 -24.7193 0.0
16.0669 -17.2718 0.0
15.6154 -17.2153 0.0
13.6345 -19.8887 0.0
11.249 -24.2022 0.0
-1.97184 38.0825 0.0
1.27346 38.4983 0.0
3.54536 43.8344 0.0
-0.985033 43.5859 0.0
-1.63282 42.6532 0.0
-2.71086 38.7767 0.0
-18.054 -11.6782 0.0
-17.689 -6.68943 0.0
-17.7997 -5.56549 0.0
-18.2155 -4.82741 0.0
-19.6983 -4.64618 0.0
-22.1028 -4.60162 0.0
-23.1789 -8.14821 0.0
-23.1774 -8.5836 0.0
-22.9223 -9.24014 0.0
16.3175 -43.6734 0.0
16.2848 -44.2414 0.0
18.9528 -48.7467 0.0
20.9003 -47.5902 0.0
21.2414 -40.9062 0.0
20.7534 -40.1505 0.0
19.5637 -19.901 0.0
19.8609 -24.0397 0.0
21.2049 -25.1007 0.0
24.269 -23.2522 0.0
25.7172 -18.7651 0.0
21.2668 19.8348 0.0
22.093 21.1293 0.0
23.8128 24.4586 0.0
19.91 25.6929 0.0
18.3472 22.3679 0.0
39.289 24.2255 0.0
38.5804 24.1897 0.0
39.7284 15.3612 0.0
42.0881 16.0664 0.0
44.1052 19.7324 0.0
43.103 21.1243 0.0
-0.644302 -20.0134 0.0
2.0672 -27.9854 0.0
4.67384 -27.8988 0.0
4.85459 -27.4077 0.0
3.10768 -22.4874 0.0
1.97548 -19.2985 0.0
-17.8974 -43.7845 0.0
-11.8215 -46.2612 0.0
-15.9088 -39.7254 0.0
-17.9072 -41.4126 0.0
-23.8568 38.8529 0.0
-22.1521 39.2593 0.0
-20.1 46.5954 0.0
-26.0089 45.3074 0.0
-26.4381 44.822 0.0
-25.3065 42.1014 0.0
1.04892 -37.0016 0.0
3.61783 -37.4974 0.0
6.02032 -37.5272 0.0
6.5294 -34.3207 0.0
6.23417 -30.8022 0.0
5.57256 -30.1917 0.0
-47.9923 -2.83396 0.0
-45.7792 -4.16038 0.0
-41.1334 -1.00608 0.0
-42.9582 -0.322556 0.0
-43.2561 -0.211834 0.0
-47.3127 -0.366908 0.0
-48.0629 -2.4369 0.0
-6.459 1.95759 0.0
-9.0893 -0.222337 0.0
-2.52773 -6.8509 0.0
-3.7013 -0.461192 0.0
-4.15277 0.482382 0.0
39.1063 0.701559 0.0
41.4392 2.37012 0.0
40.9548 7.30557 0.0
39.4937 8.0438 0.0
36.9712 5.86974 0.0
-13.0699 -51.1578 0.0
-12.4003 -51.5397 0.0
-7.6779 -50.1516 0.0
-10.8032 -47.0981 0.0
-11.561 -46.7799 0.0
-17.6369 -44.3032 0.0
-18.0101 -44.9854 0.0
-44.5133 10.0774 0.0
-42.2501 8.39214 0.0
-37.8005 9.54824 0.0
-40.9813 11.9616 0.0
-45.4165 13.8918 0.0
-45.3587 11.3274 0.0
-1.13903 8.10498 0.0
-1.01579 9.16744 0.0
-2.04016 10.4284 0.0
-3.69032 12.3474 0.0
-8.03949 9.89889 0.0
-8.00516 8.6018 0.0
-6.66987 5.91072 0.0
-30.288 6.86793 0.0
-33.4445 7.95359 0.0
-33.8717 7.54162 0.0
-34.6155 5.10741 0.0
-32.9169 2.70185 0.0
-31.4239 1.86845 0.0
-30.6545 2.08012 0.0
-49.6981 5.82001 0.0
-51.7668 6.26774 0.0
-56.091 2.84926 0.0
-48.4145 0.768413 0.0
-49.487 5.31826 0.0
-34.9742 -40.6185 0.0
-36.7139 -36.7809 0.0
-36.5848 -44.6297 0.0
-35.4448 -45.7475 0.0
-33.2954 -46.5457 0.0
-33.0036 -45.7712 0.0
20.7034 35.5827 0.0
21.133 35.8539 0.0
18.2963 41.6214 0.0
16.7483 41.3507 0.0
16.0184 37.3432 0.0
-25.1665 -36.5916 0.0
-24.8918 -36.6381 0.0
-20.3236 -30.0387 0.0
-21.3155 -28.9488 0.0
-24.2317 -30.1644 0.0
-25.7664 -33.5314 0.0
20.8216 11.1977 0.0
22.5249 14.5908 0.0
22.0764 20.3409 0.0
21.2502 19.0465 0.0
18.8316 14.8796 0.0
18.8363 12.5186 0.0
13.7446 -40.3364 0.0
13.303 -39.5087 0.0
10.2252 -41.3028 0.0
[...]
<CellData Scalars="cell variable 4" Vectors="cell vector">
<DataArray type="Float64" NumberOfComponents="3" Name="cell vector" format="ascii">
0 0 0
0 0 0
0 0 0
0 0 0
0 0 0
0 0 0
0 0 0
0 0 0
0 0 0
0 0 0
0 0 0
0 0 0
0 0 0
0 0 0
0 0 0
0 0 0
0 0 0
0 0 0
0 0 0
0 0 0
0 0 0
0 0 0
0 0 0
0 0 0
0 0 0
0 0 0
0 0 0
0 0 0
0 0 0
0 0 0
0 0 0
0 0 0
0 0 0
0 0 0
0 0 0
0 0 0
0 0 0
0 0 0
0 0 0
0 0 0
0 0 0
0 0 0
0 0 0
0 0 0
0 0 0
0 0 0
0 0 0
0 0 0
0 0 0
0 0 0
0 0 0
0 0 0
0 0 0
0 0 0
0 0 0
0 0 0
0 0 0
0 0 0
0 0 0
0 0 0
0 0 0
0 0 0
0 0 0
0 0 0
0 0 0
0 0 0
0 0 0
0 0 0
0 0 0
0 0 0
0 0 0
0 0 0
0 0 0
0 0 0
0 0 0
0 0 0
0 0 0
0 0 0
0 0 0
0 0 0
0 0 0
0 0 0
0 0 0
0 0 0
0 0 0
0 0 0
0 0 0
0 0 0
0 0 0
0 0 0
0 0 0
0 0 0
0 0 0
0 0 0
0 0 0
0 0 0
0 0 0
0 0 0
0 0 0
0 0 0
0 0 0
0 0 0
0 0 0
0 0 0
0 0 0
0 0 0
0 0 0
0 0 0
0 0 0
0 0 0
0 0 0
0 0 0
0 0 0
0 0 0
0 0 0
0 0 0
0 0 0
0 0 0
0 0 0
0 0 0
0 0 0
0 0 0
0 0 0
0 0 0
0 0 0
0 0 0
0 0 0
0 0 0
0 0 0
0 0 0
0 0 0
0 0 0
0 0 0
0 0 0
0 0 0
0 0 0
0 0 0
0 0 0
0 0 0
0 0 0
0 0 0
0 0 0
0 0 0
0 0 0
0 0 0
0 0 0
0 0 0
0 0 0
0 0 0
0 0 0
0 0 0
0 0 0
0 0 0
0 0 0
0 0 0
0 0 0
0 0 0
0 0 0
0 0 0
0 0 0
0 0 0
0 0 0
0 0 0
0 0 0
0 0 0
0 0 0
0 0 0
0 0 0
0 0 0
0 0 0
0 0 0
0 0 0
0 0 0
0 0 0
0 0 0
0 0 0
0 0 0
0 0 0
0 0 0
0 0 0
0 0 0
0 0 0
0 0 0
0 0 0
0 0 0
0 0 0
0 0 0
0 0 0
0 0 0
0 0 0
0 0 0
0 0 0
0 0 0
0 0 0
0 0 0
0 0 0
0 0 0
0 0 0
0 0 0
0 0 0
0 0 0
0 0 0
0 0 0
0 0 0
0 0 0
0 0 0
0 0 0
0 0 0
0 0 0
0 0 0
0 0 0
0 0 0
0 0 0
0 0 0
0 0 0
0 0 0
0 0 0
0 0 0
0 0 0
0 0 0
0 0 0
0 0 0
0 0 0
0 0 0
0 0 0
0 0 0
0 0 0
0 0 0
0 0 0
0 0 0
0 0 0
0 0 0
0 0 0
0 0 0
0 0 0
0 0 0
0 0 0
0 0 0
0 0 0
0 0 0
0 0 0
0 0 0
0 0 0
0 0 0
0 0 0
0 0 0
0 0 0
0 0 0
0 0 0
0 0 0
0 0 0
0 0 0
0 0 0
0 0 0
0 0 0
0 0 0
0 0 0
0 0 0
0 0 0
0 0 0
0 0 0
0 0 0
0 0 0
0 0 0
0 0 0
0 0 0
0 0 0
0 0 0
0 0 0
0 0 0
0 0 0
0 0 0
0 0 0
0 0 0
0 0 0
0 0 0
0 0 0
0 0 0
0 0 0
0 0 0
0 0 0
0 0 0
0 0 0
0 0 0
0 0 0
0 0 0
0 0 0
0 0 0
0 0 0
0 0 0
0 0 0
0 0 0
0 0 0
0 0 0
0 0 0
0 0 0
0 0 0
0 0 0
0 0 0
0 0 0
0 0 0
0 0 0
0 0 0
0 0 0
0 0 0
0 0 0
0 0 0
0 0 0
0 0 0
0 0 0
0 0 0
0 0 0
0 0 0
0 0 0
0 0 0
0 0 0
0 0 0
0 0 0
0 0 0
0 0 0
0 0 0
0 0 0
0 0 0
0 0 0
0 0 0
0 0 0
0 0 0
0 0 0
0 0 0
0 0 0
0 0 0
0 0 0
0 0 0
0 0 0
0 0 0
0 0 0
0 0 0
0 0 0
0 0 0
0 0 0
0 0 0
0 0 0
0 0 0
0 0 0
0 0 0
0 0 0
0 0 0
0 0 0
0 0 0
0 0 0
0 0 0
0 0 0
0 0 0
0 0 0
0 0 0
0 0 0
0 0 0
0 0 0
0 0 0
0 0 0
0 0 0
0 0 0
0 0 0
0 0 0
0 0 0
0 0 0
0 0 0
0 0 0
0 0 0
0 0 0
0 0 0
0 0 0
0 0 0
0 0 0
0 0 0
0 0 0
0 0 0
0 0 0
0 0 0
0 0 0
0 0 0
0 0 0
0 0 0
0 0 0
0 0 0
0 0 0
0 0 0
0 0 0
0 0 0
0 0 0
0 0 0
0 0 0
0 0 0
0 0 0
0 0 0
0 0 0
0 0 0
0 0 0
0 0 0
0 0 0
0 0 0
0 0 0
0 0 0
</DataArray>
<DataArray type="Float64" Name="cell vector length" format="ascii">
0 0 0 0 0 0 0 0 0 0 0 0 0 0 0 0 0 0 0 0 0 0 0 0 0 0 0 0 0 0 0 0 0 0 0 0 0 0 0 0 0 0 0 0 0 0 0 0 0 0 0 0 0 0 0 0 0 0 0 0 0 0 0 0 0 0 0 0 0 0 0 0 0 0 0 0 0 0 0 0 0 0 0 0 0 0 0 0 0 0 0 0 0 0 0 0 0 0 0 0 0 0 0 0 0 0 0 0 0 0 0 0 0 0 0 0 0 0 0 0 0 0 0 0 0 0 0 0 0 0 0 0 0 0 0 0 0 0 0 0 0 0 0 0 0 0 0 0 0 0 0 0 0 0 0 0 0 0 0 0 0 0 0 0 0 0 0 0 0 0 0 0 0 0 0 0 0 0 0 0 0 0 0 0 0 0 0 0 0 0 0 0 0 0 0 0 0 0 0 0 0 0 0 0 0 0 0 0 0 0 0 0 0 0 0 0 0 0 0 0 0 0 0 0 0 0 0 0 0 0 0 0 0 0 0 0 0 0 0 0 0 0 0 0 0 0 0 0 0 0 0 0 0 0 0 0 0 0 0 0 0 0 0 0 0 0 0 0 0 0 0 0 0 0 0 0 0 0 0 0 0 0 0 0 0 0 0 0 0 0 0 0 0 0 0 0 0 0 0 0 0 0 0 0 0 0 0 0 0 0 0 0 0 0 0 0 0 0 0 0 0 0 0 0 0 0 0 0 0 0 0 0 0 0 0 0 0 0 0 0 0 0 0 0 0 0 0 0 0 0 0 0 0 0 0 0 0 0 0 0 0 0 0 0 0 0 0 0 0 0 0 0 0 0 0 0 0 0 0 0 0 0 0 0 0 0 0 0 0 0 0 0 0 0 0 0 0 0 0 0 0 0 0 
</DataArray>
<DataArray type="Float64" Name="cell variable 4" format="ascii">
1.11547 1.06245 1.12037 1.07467 0.90618 0.90618 1.11547 1.14226 1.11547 0.90618 1.14226 1.04461 1.11547 1.04461 0.912892 0.919422 1.07467 1.10185 1.10185 0.94865 0.919422 1.12037 1.06245 1.00681 1.07467 1.10185 1.00681 1.14226 0.912892 1.11547 0.980966 1.10185 0.90618 1.04461 1.11547 1.12037 1.07467 1.10185 0.912892 1.14226 0.980966 1.11547 0.99432 1.10185 0.980966 1.10185 1.11547 1.12037 0.980966 0.919422 1.11547 1.11547 1.12037 1.04461 1.11547 1.07467 1.12037 0.94865 1.11547 1.14226 1.10185 1.11547 1.04461 1.07467 1.04461 0.919422 1.12037 1.10185 1.04461 1.00681 1.12037 1.12037 1.00681 0.90618 1.14226 1.04461 1.14226 0.94865 1.00681 1.11547 1.04461 0.919422 1.11547 0.848855 1.11547 1.11547 1.04461 1.10185 1.14226 1.07467 0.919422 0.980966 1.11547 1.04461 0.980966 0.980966 1.00681 0.919422 1.12037 1.11547 1.04461 1.04461 1.04461 0.94865 1.06245 1.06245 0.99432 1.12037 1.04461 0.912892 1.00681 1.00681 1.10185 1.11547 1.00681 1.14226 1.14226 1.07467 1.11547 1.14226 1.14226 1.07467 1.00681 1.11547 1.00681 1.14226 1.04461 1.07467 0.919422 1.04461 1.11547 1.11547 1.00681 1.07467 1.11547 1.00681 1.06245 1.11547 1.04461 0.919422 1.10185 1.00681 1.12037 0.919422 0.90618 1.00681 1.07467 1.07467 0.980966 0.848855 1.04461 1.14226 0.919422 1.14226 1.00681 1.00681 1.10185 1.12037 1.12037 1.04461 1.07467 1.00681 1.04461 1.06245 1.00681 1.14226 1.04461 1.11547 1.11547 1.10185 1.10185 0.919422 1.12037 0.919422 1.00681 1.04461 1.00681 0.919422 1.12037 0.919422 1.12037 1.00681 1.00681 1.11547 1.00681 0.980966 1.06245 1.11547 1.04461 1.06245 1.07467 0.980966 1.07467 0.90618 0.99432 0.919422 0.94865 0.94865 1.04461 1.11547 0.94865 0.90618 1.11547 0.912892 1.12037 1.04461 0.94865 1.04461 1.04461 1.11547 1.07467 1.10185 1.07467 1.06245 0.980966 1.10185 0.94865 1.12037 1.07467 1.07467 1.04461 1.04461 0.980966 1.10185 1.04461 1.06245 1.11547 1.10185 1.11547 0.912892 1.07467 1.10185 0.848855 1.10185 1.04461 0.919422 1.10185 1.10185 0.980966 0.980966 1.10185 0.94865 0.919422 1.11547 0.94865 1.04461 1.00681 1.06245 1.07467 1.07467 1.10185 0.848855 0.980966 1.14226 0.919422 1.12037 1.10185 0.99432 1.06245 1.14226 1.11547 1.14226 1.06245 1.11547 0.94865 1.14226 1.14226 1.04461 1.14226 0.919422 1.11547 1.00681 1.12037 1.04461 1.14226 1.11547 1.00681 0.980966 0.94865 1.11547 1.00681 1.06245 1.10185 1.04461 1.14226 1.12037 1.12037 1.14226 1.10185 1.00681 1.11547 1.14226 1.04461 1.11547 1.10185 1.07467 1.00681 1.12037 1.06245 1.00681 0.919422 1.10185 1.12037 1.10185 0.912892 1.00681 1.11547 1.07467 1.10185 1.06245 1.07467 1.06245 1.12037 1.07467 1.14226 1.07467 1.10185 1.11547 1.04461 1.10185 1.11547 1.12037 1.10185 1.10185 0.919422 1.04461 1.07467 1.14226 1.07467 1.00681 1.04461 1.14226 1.14226 1.11547 1.11547 0.980966 0.90618 1.07467 1.04461 0.919422 0.90618 1.04461 1.12037 0.94865 0.99432 1.06245 1.04461 1.11547 1.11547 1.12037 0.90618 1.12037 1.07467 1.12037 1.00681 0.919422 1.00681 0.90618 1.04461 1.14226 1.12037 1.07467 0.94865 0.94865 0.919422 1.14226 0.980966 1.14226 1.11547 1.11547 0.980966 1.12037 0.848855 1.10185 1.11547 1.04461 1.12037 0.919422 1.10185 1.07467 1.10185 1.11547 1.07467 1.00681 1.11547 0.919422 1.04461 0.90618 1.14226 0.912892 1.07467 1.04461 0.980966 1.07467 1.04461 1.11547 0.980966 1.14226 1.06245 1.11547 1.06245 0.919422 1.11547 
</DataArray>
<DataArray type="Float64" Name="cell variable 5" format="ascii">
0.00797274 0.00878122 0.00790366 0.00858434 0.0120314 0.0120314 0.00797274 0.00760594 0.00797274 0.0120314 0.00760594 0.00908091 0.00797274 0.00908091 0.0118572 0.0116913 0.00858434 0.00816951 0.00816951 0.0109898 0.0116913 0.00790366 0.00878122 0.00976872 0.00858434 0.00816951 0.00976872 0.00760594 0.0118572 0.00797274 0.0102849 0.00816951 0.0120314 0.00908091 0.00797274 0.00790366 0.00858434 0.00816951 0.0118572 0.00760594 0.0102849 0.00797274 0.0100133 0.00816951 0.0102849 0.00816951 0.00797274 0.00790366 0.0102849 0.0116913 0.00797274 0.00797274 0.00790366 0.00908091 0.00797274 0.00858434 0.00790366 0.0109898 0.00797274 0.00760594 0.00816951 0.00797274 0.00908091 0.00858434 0.00908091 0.0116913 0.00790366 0.00816951 0.00908091 0.00976872 0.00790366 0.00790366 0.00976872 0.0120314 0.00760594 0.00908091 0.00760594 0.0109898 0.00976872 0.00797274 0.00908091 0.0116913 0.00797274 0.0136882 0.00797274 0.00797274 0.00908091 0.00816951 0.00760594 0.00858434 0.0116913 0.0102849 0.00797274 0.00908091 0.0102849 0.0102849 0.00976872 0.0116913 0.00790366 0.00797274 0.00908091 0.00908091 0.00908091 0.0109898 0.00878122 0.00878122 0.0100133 0.00790366 0.00908091 0.0118572 0.00976872 0.00976872 0.00816951 0.00797274 0.00976872 0.00760594 0.00760594 0.00858434 0.00797274 0.00760594 0.00760594 0.00858434 0.00976872 0.00797274 0.00976872 0.00760594 0.00908091 0.00858434 0.0116913 0.00908091 0.00797274 0.00797274 0.00976872 0.00858434 0.00797274 0.00976872 0.00878122 0.00797274 0.00908091 0.0116913 0.00816951 0.00976872 0.00790366 0.0116913 0.0120314 0.00976872 0.00858434 0.00858434 0.0102849 0.0136882 0.00908091 0.00760594 0.0116913 0.00760594 0.00976872 0.00976872 0.00816951 0.00790366 0.00790366 0.00908091 0.00858434 0.00976872 0.00908091 0.00878122 0.00976872 0.00760594 0.00908091 0.00797274 0.00797274 0.00816951 0.00816951 0.0116913 0.00790366 0.0116913 0.00976872 0.00908091 0.00976872 0.0116913 0.00790366 0.0116913 0.00790366 0.00976872 0.00976872 0.00797274 0.00976872 0.0102849 0.00878122 0.00797274 0.00908091 0.00878122 0.00858434 0.0102849 0.00858434 0.0120314 0.0100133 0.0116913 0.0109898 0.0109898 0.00908091 0.00797274 0.0109898 0.0120314 0.00797274 0.0118572 0.00790366 0.00908091 0.0109898 0.00908091 0.00908091 0.00797274 0.00858434 0.00816951 0.00858434 0.00878122 0.0102849 0.00816951 0.0109898 0.00790366 0.00858434 0.00858434 0.00908091 0.00908091 0.0102849 0.00816951 0.00908091 0.00878122 0.00797274 0.00816951 0.00797274 0.0118572 0.00858434 0.00816951 0.0136882 0.00816951 0.00908091 0.0116913 0.00816951 0.00816951 0.0102849 0.0102849 0.00816951 0.0109898 0.0116913 0.00797274 0.0109898 0.00908091 0.00976872 0.00878122 0.00858434 0.00858434 0.00816951 0.0136882 0.0102849 0.00760594 0.0116913 0.00790366 0.00816951 0.0100133 0.00878122 0.00760594 0.00797274 0.00760594 0.00878122 0.00797274 0.0109898 0.00760594 0.00760594 0.00908091 0.00760594 0.0116913 0.00797274 0.00976872 0.00790366 0.00908091 0.00760594 0.00797274 0.00976872 0.0102849 0.0109898 0.00797274 0.00976872 0.00878122 0.00816951 0.00908091 0.00760594 0.00790366 0.00790366 0.00760594 0.00816951 0.00976872 0.00797274 0.00760594 0.00908091 0.00797274 0.00816951 0.00858434 0.00976872 0.00790366 0.00878122 0.00976872 0.0116913 0.00816951 0.00790366 0.00816951 0.0118572 0.00976872 0.00797274 0.00858434 0.00816951 0.00878122 0.00858434 0.00878122 0.00790366 0.00858434 0.00760594 0.00858434 0.00816951 0.00797274 0.00908091 0.00816951 0.00797274 0.00790366 0.00816951 0.00816951 0.0116913 0.00908091 0.00858434 0.00760594 0.00858434 0.00976872 0.00908091 0.00760594 0.00760594 0.00797274 0.00797274 0.0102849 0.0120314 0.00858434 0.00908091 0.0116913 0.0120314 0.00908091 0.00790366 0.0109898 0.0100133 0.00878122 0.00908091 0.00797274 0.00797274 0.00790366 0.0120314 0.00790366 0.00858434 0.00790366 0.00976872 0.0116913 0.00976872 0.0120314 0.00908091 0.00760594 0.00790366 0.00858434 0.0109898 0.0109898 0.0116913 0.00760594 0.0102849 0.00760594 0.00797274 0.00797274 0.0102849 0.00790366 0.0136882 0.00816951 0.00797274 0.00908091 0.00790366 0.0116913 0.00816951 0.00858434 0.00816951 0.00797274 0.00858434 0.00976872 0.00797274 0.0116913 0.00908091 0.0120314 0.00760594 0.0118572 0.00858434 0.00908091 0.0102849 0.00858434 0.00908091 0.00797274 0.0102849 0.00760594 0.00878122 0.00797274 0.00878122 0.0116913 0.00797274 
</DataArray>
<DataArray type="Float64" Name="cell variable 6" format="ascii">
4.32387e-06 5.74138e-06 4.21468e-06 5.3719e-06 1.4406e-05 1.4406e-05 4.32387e-06 3.76475e-06 4.32387e-06 1.4406e-05 3.76475e-06 6.33494e-06 4.32387e-06 6.33494e-06 1.38076e-05 1.32528e-05 5.3719e-06 4.64493e-06 4.64493e-06 1.10661e-05 1.32528e-05 4.21468e-06 5.74138e-06 7.8448e-06 5.3719e-06 4.64493e-06 7.8448e-06 3.76475e-06 1.38076e-05 4.32387e-06 9.11938e-06 4.64493e-06 1.4406e-05 6.33494e-06 4.32387e-06 4.21468e-06 5.3719e-06 4.64493e-06 1.38076e-05 3.76475e-06 9.11938e-06 4.32387e-06 8.43313e-06 4.64493e-06 9.11938e-06 4.64493e-06 4.32387e-06 4.21468e-06 9.11938e-06 1.32528e-05 4.32387e-06 4.32387e-06 4.21468e-06 6.33494e-06 4.32387e-06 5.3719e-06 4.21468e-06 1.10661e-05 4.32387e-06 3.76475e-06 4.64493e-06 4.32387e-06 6.33494e-06 5.3719e-06 6.33494e-06 1.32528e-05 4.21468e-06 4.64493e-06 6.33494e-06 7.8448e-06 4.21468e-06 4.21468e-06 7.8448e-06 1.4406e-05 3.76475e-06 6.33494e-06 3.76475e-06 1.10661e-05 7.8448e-06 4.32387e-06 6.33494e-06 1.32528e-05 4.32387e-06 2.09522e-05 4.32387e-06 4.32387e-06 6.33494e-06 4.64493e-06 3.76475e-06 5.3719e-06 1.32528e-05 9.11938e-06 4.32387e-06 6.33494e-06 9.11938e-06 9.11938e-06 7.8448e-06 1.32528e-05 4.21468e-06 4.32387e-06 6.33494e-06 6.33494e-06 6.33494e-06 1.10661e-05 5.74138e-06 5.74138e-06 8.43313e-06 4.21468e-06 6.33494e-06 1.38076e-05 7.8448e-06 7.8448e-06 4.64493e-06 4.32387e-06 7.8448e-06 3.76475e-06 3.76475e-06 5.3719e-06 4.32387e-06 3.76475e-06 3.76475e-06 5.3719e-06 7.8448e-06 4.32387e-06 7.8448e-06 3.76475e-06 6.33494e-06 5.3719e-06 1.32528e-05 6.33494e-06 4.32387e-06 4.32387e-06 7.8448e-06 5.3719e-06 4.32387e-06 7.8448e-06 5.74138e-06 4.32387e-06 6.33494e-06 1.32528e-05 4.64493e-06 7.8448e-06 4.21468e-06 1.32528e-05 1.4406e-05 7.8448e-06 5.3719e-06 5.3719e-06 9.11938e-06 2.09522e-05 6.33494e-06 3.76475e-06 1.32528e-05 3.76475e-06 7.8448e-06 7.8448e-06 4.64493e-06 4.21468e-06 4.21468e-06 6.33494e-06 5.3719e-06 7.8448e-06 6.33494e-06 5.74138e-06 7.8448e-06 3.76475e-06 6.33494e-06 4.32387e-06 4.32387e-06 4.64493e-06 4.64493e-06 1.32528e-05 4.21468e-06 1.32528e-05 7.8448e-06 6.33494e-06 7.8448e-06 1.32528e-05 4.21468e-06 1.32528e-05 4.21468e-06 7.8448e-06 7.8448e-06 4.32387e-06 7.8448e-06 9.11938e-06 5.74138e-06 4.32387e-06 6.33494e-06 5.74138e-06 5.3719e-06 9.11938e-06 5.3719e-06 1.4406e-05 8.43313e-06 1.32528e-05 1.10661e-05 1.10661e-05 6.33494e-06 4.32387e-06 1.10661e-05 1.4406e-05 4.32387e-06 1.38076e-05 4.21468e-06 6.33494e-06 1.10661e-05 6.33494e-06 6.33494e-06 4.32387e-06 5.3719e-06 4.64493e-06 5.3719e-06 5.74138e-06 9.11938e-06 4.64493e-06 1.10661e-05 4.21468e-06 5.3719e-06 5.3719e-06 6.33494e-06 6.33494e-06 9.11938e-06 4.64493e-06 6.33494e-06 5.74138e-06 4.32387e-06 4.64493e-06 4.32387e-06 1.38076e-05 5.3719e-06 4.64493e-06 2.09522e-05 4.64493e-06 6.33494e-06 1.32528e-05 4.64493e-06 4.64493e-06 9.11938e-06 9.11938e-06 4.64493e-06 1.10661e-05 1.32528e-05 4.32387e-06 1.10661e-05 6.33494e-06 7.8448e-06 5.74138e-06 5.3719e-06 5.3719e-06 4.64493e-06 2.09522e-05 9.11938e-06 3.76475e-06 1.32528e-05 4.21468e-06 4.64493e-06 8.43313e-06 5.74138e-06 3.76475e-06 4.32387e-06 3.76475e-06 5.74138e-06 4.32387e-06 1.10661e-05 3.76475e-06 3.76475e-06 6.33494e-06 3.76475e-06 1.32528e-05 4.32387e-06 7.8448e-06 4.21468e-06 6.33494e-06 3.76475e-06 4.32387e-06 7.8448e-06 9.11938e-06 1.10661e-05 4.32387e-06 7.8448e-06 5.74138e-06 4.64493e-06 6.33494e-06 3.76475e-06 4.21468e-06 4.21468e-06 3.76475e-06 4.64493e-06 7.8448e-06 4.32387e-06 3.76475e-06 6.33494e-06 4.32387e-06 4.64493e-06 5.3719e-06 7.8448e-06 4.21468e-06 5.74138e-06 7.8448e-06 1.32528e-05 4.64493e-06 4.21468e-06 4.64493e-06 1.38076e-05 7.8448e-06 4.32387e-06 5.3719e-06 4.64493e-06 5.74138e-06 5.3719e-06 5.74138e-06 4.21468e-06 5.3719e-06 3.76475e-06 5.3719e-06 4.64493e-06 4.32387e-06 6.33494e-06 4.64493e-06 4.32387e-06 4.21468e-06 4.64493e-06 4.64493e-06 1.32528e-05 6.33494e-06 5.3719e-06 3.76475e-06 5.3719e-06 7.8448e-06 6.33494e-06 3.76475e-06 3.76475e-06 4.32387e-06 4.32387e-06 9.11938e-06 1.4406e-05 5.3719e-06 6.33494e-06 1.32528e-05 1.4406e-05 6.33494e-06 4.21468e-06 1.10661e-05 8.43313e-06 5.74138e-06 6.33494e-06 4.32387e-06 4.32387e-06 4.21468e-06 1.4406e-05 4.21468e-06 5.3719e-06 4.21468e-06 7.8448e-06 1.32528e-05 7.8448e-06 1.4406e-05 6.33494e-06 3.76475e-06 4.21468e-06 5.3719e-06 1.10661e-05 1.10661e-05 1.32528e-05 3.76475e-06 9.11938e-06 3.76475e-06 4.32387e-06 4.32387e-06 9.11938e-06 4.21468e-06 2.09522e-05 4.64493e-06 4.32387e-06 6.33494e-06 4.21468e-06 1.32528e-05 4.64493e-06 5.3719e-06 4.64493e-06 4.32387e-06 5.3719e-06 7.8448e-06 4.32387e-06 1.32528e-05 6.33494e-06 1.4406e-05 3.76475e-06 1.38076e-05 5.3719e-06 6.33494e-06 9.11938e-06 5.3719e-06 6.33494e-06 4.32387e-06 9.11938e-06 3.76475e-06 5.74138e-06 4.32387e-06 5.74138e-06 1.32528e-05 4.32387e-06 
</DataArray>
<DataArray type="Float64" Name="cell variable 7" format="ascii">