<VTKFile type="UnstructuredGrid" version="0.1">
<UnstructuredGrid>
<Piece  NumberOfPoints="    2403" NumberOfCells="     401">
<Points>
<DataArray type="Float64" NumberOfComponents="3" format="ascii">
-2.28882 -16.4823 0.0
-0.96291 -18.3331 0.0
1.63261 -17.6293 0.0
1.54701 -15.0143 0.0
-0.17985 -9.51018 0.0
-1.38724 -9.32283 0.0
-1.92952 -9.6083 0.0
-3.36701 -13.2981 0.0
36.264 24.2941 0.0
36.5189 24.2822 0.0
39.9794 29.8823 0.0
33.0379 29.3516 0.0
33.1423 28.6927 0.0
-22.1295 8.01802 0.0
-17.8806 13.64 0.0
-22.7759 15.4 0.0
-10.6497 44.991 0.0
-11.0279 42.7796 0.0
-2.26141 44.1322 0.0
-2.42476 45.1205 0.0
-6.7582 47.5266 0.0
-7.21448 47.3617 0.0
-28.9345 -41.3184 0.0
-29.1243 -37.6248 0.0
-33.3584 -38.9835 0.0
-31.3681 -44.0026 0.0
-29.276 -37.1871 0.0
-29.2596 -36.1404 0.0
-32.8736 -33.5904 0.0
-35.2842 -34.3461 0.0
-33.5101 -38.5458 0.0
13.6403 -7.33318 0.0
16.8877 -6.17067 0.0
17.3448 -2.31411 0.0
13.5439 -2.43481 0.0
12.2044 -5.75944 0.0
39.8608 -44.4439 0.0
37.0681 -42.9992 0.0
31.9642 -49.7323 0.0
32.2531 -50.7393 0.0
33.8066 -51.2483 0.0
35.086 -50.9448 0.0
38.1227 -48.2244 0.0
20.5452 -25.5865 0.0
20.8843 -26.389 0.0
27.5152 -28.1866 0.0
26.5443 -22.6804 0.0
24.3829 -22.7689 0.0
23.524 -22.8305 0.0
20.6328 -24.5588 0.0
-24.0849 -36.0738 0.0
-24.6412 -36.3931 0.0
-22.1071 -42.7016 0.0
-20.4589 -43.7697 0.0
-18.1752 -42.5201 0.0
-17.8266 -41.8679 0.0
-17.8348 -39.6127 0.0
-22.7667 -36.599 0.0
-23.3086 -36.2531 0.0
-23.8317 -36.1333 0.0
10.16 36.0225 0.0
13.4404 35.6405 0.0
14.7669 36.0111 0.0
15.4683 39.9315 0.0
12.0731 40.7891 0.0
8.14912 40.4535 0.0
7.75543 37.848 0.0
8.24815 37.1133 0.0
6.15015 -42.5453 0.0
6.47008 -42.5051 0.0
3.2982 -36.5254 0.0
0.805326 -36.1493 0.0
0.238962 -36.2522 0.0
-0.505962 -37.9209 0.0
38.9452 -30.7762 0.0
42.4443 -29.0283 0.0
40.1651 -25.8674 0.0
39.1687 -25.9991 0.0
36.97 -27.5299 0.0
36.6973 -29.0644 0.0
36.5885 -30.4896 0.0
-24.8573 -35.3967 0.0
-25.2966 -32.4463 0.0
-31.7223 -30.1291 0.0
-32.2396 -31.3181 0.0
-32.5078 -33.3141 0.0
-28.8937 -35.8642 0.0
-25.4136 -35.716 0.0
46.9882 -23.9743 0.0
47.8179 -24.6913 0.0
49.4919 -18.0779 0.0
48.259 -16.7968 0.0
45.9494 -16.5406 0.0
45.7075 -16.9977 0.0
-57.8752 -12.4735 0.0
-55.9082 -13.8037 0.0
-49.8402 -12.7939 0.0
-52.2684 -10.9802 0.0
-59.3201 -8.19709 0.0
-59.3258 -8.26392 0.0
-14.094 38.3738 0.0
-18.2277 37.3445 0.0
-16.2113 31.9276 0.0
-14.2126 33.004 0.0
-13.7554 33.8094 0.0
41.4976 8.07809 0.0
47.331 7.71291 0.0
51.6737 10.0593 0.0
51.3582 10.7443 0.0
45.2441 12.3577 0.0
45.0267 13.6376 0.0
45.4775 12.8066 0.0
51.5917 11.1932 0.0
51.0398 16.7853 0.0
49.3058 17.8976 0.0
36.7341 -42.8118 0.0
36.1475 -41.7462 0.0
35.5091 -41.8763 0.0
30.3649 -44.4748 0.0
29.1049 -47.2205 0.0
29.5235 -47.8733 0.0
31.6302 -49.5449 0.0
-51.7449 -10.7049 0.0
-49.3167 -12.5187 0.0
-48.3949 -12.9092 0.0
-47.0895 -7.83097 0.0
-47.9271 -6.35596 0.0
-53.4212 -5.40503 0.0
-11.2053 -8.01931 0.0
-8.21686 -8.1244 0.0
-6.00044 -7.42463 0.0
-11.7048 -1.60156 0.0
-12.1528 -1.53394 0.0
26.8585 30.4781 0.0
30.1206 32.2304 0.0
30.2892 34.6185 0.0
29.7361 35.6269 0.0
25.5399 38.4729 0.0
25.1655 38.3317 0.0
-30.5218 15.143 0.0
-28.9403 16.2527 0.0
-29.6401 22.9399 0.0
-34.4844 22.2609 0.0
-13.3146 33.9924 0.0
-10.1004 35.3444 0.0
-7.75392 39.7036 0.0
-13.0443 39.1476 0.0
-13.6532 38.5568 0.0
24.6093 -5.7143 0.0
24.5776 -5.92291 0.0
27.7267 -10.0582 0.0
31.0286 -9.94119 0.0
35.8692 -9.77994 0.0
37.2251 -8.72324 0.0
-41.1713 0.27506 0.0
-38.3621 -0.712343 0.0
-36.4521 3.46764 0.0
-40.5968 7.38836 0.0
-42.7371 9.1032 0.0
-41.857 3.62051 0.0
-1.42728 19.8246 0.0
-2.80005 16.6114 0.0
-2.26682 14.8966 0.0
1.34821 16.4451 0.0
2.80021 17.816 0.0
3.9657 18.9718 0.0
-0.0305544 22.8363 0.0
48.1103 -24.9007 0.0
48.1913 -24.9937 0.0
52.0943 -23.3753 0.0
53.2297 -21.7749 0.0
49.7844 -18.2873 0.0
45.4281 -17.1274 0.0
42.8162 -18.8688 0.0
43.847 -24.4978 0.0
46.7088 -24.104 0.0
7.96217 49.1506 0.0
8.70224 51.0989 0.0
4.21201 55.2683 0.0
3.24846 52.0072 0.0
3.67581 50.2821 0.0
-41.4516 40.4107 0.0
-39.356 40.6808 0.0
-37.5609 44.048 0.0
-38.6155 47.2992 0.0
-39.2042 47.2173 0.0
-43.1388 44.776 0.0
26.319 50.9046 0.0
26.5993 53.4148 0.0
21.3603 58.5843 0.0
19.9757 57.8004 0.0
19.7464 57.4767 0.0
21.0339 52.8452 0.0
25.1086 51.3711 0.0
0.303085 -46.5648 0.0
-0.618084 -45.997 0.0
-2.40746 -46.5259 0.0
-4.39997 -49.2884 0.0
-3.52712 -53.2096 0.0
-0.119335 -53.5482 0.0
35.7681 -30.8588 0.0
35.8768 -29.4335 0.0
26.7428 -32.5969 0.0
26.5234 -32.9599 0.0
27.9192 -34.8101 0.0
28.1238 -34.8866 0.0
28.177 -34.893 0.0
33.4762 -32.0746 0.0
-30.2076 -12.8564 0.0
-30.3424 -13.2104 0.0
-29.2185 -15.2456 0.0
-25.3938 -15.4585 0.0
-22.3487 -14.6378 0.0
-22.7494 -11.6003 0.0
1.68001 36.8599 0.0
4.37686 36.172 0.0
7.06829 37.9358 0.0
7.46198 40.5412 0.0
7.3079 40.8748 0.0
5.71858 42.3369 0.0
5.05258 42.392 0.0
3.88774 42.0837 0.0
55.335 -29.9067 0.0
55.7283 -28.6258 0.0
52.2557 -23.856 0.0
48.3527 -25.4744 0.0
48.1519 -26.5207 0.0
59.9341 1.74589 0.0
59.3324 7.13468 0.0
59.0342 7.27808 0.0
56.0253 6.45431 0.0
55.8371 -2.43573 0.0
7.10075 3.82231 0.0
5.49814 4.2447 0.0
3.31088 2.70146 0.0
4.05809 -0.970663 0.0
4.92967 -1.1223 0.0
7.75358 -0.460454 0.0
20.099 46.4218 0.0
21.3496 43.7587 0.0
24.9923 46.8533 0.0
26.8646 49.2425 0.0
26.3588 50.1902 0.0
25.1484 50.6567 0.0
33.4822 -19.1948 0.0
34.3803 -19.5749 0.0
44.8813 -14.5691 0.0
44.9184 -14.0672 0.0
44.5866 -12.0305 0.0
43.7816 -11.868 0.0
39.3913 -14.4409 0.0
-30.1534 46.8181 0.0
-31.6972 45.3447 0.0
-31.263 44.3486 0.0
-27.1884 42.8515 0.0
-25.965 43.5224 0.0
-25.5596 43.9803 0.0
-23.8768 48.4188 0.0
54.6614 -5.17057 0.0
55.0864 -3.75368 0.0
52.8435 5.2741 0.0
51.6783 3.07116 0.0
51.4931 1.18399 0.0
53.8542 -5.44807 0.0
-52.3469 -34.4433 0.0
-49.0577 -36.7578 0.0
-46.9865 -36.5874 0.0
-46.0539 -36.1351 0.0
-46.4761 -33.5917 0.0
-47.6752 -31.8635 0.0
55.2281 -3.41137 0.0
55.536 -2.43283 0.0
55.7242 6.45721 0.0
53.7104 7.19761 0.0
52.9853 5.61641 0.0
31.1622 -20.0813 0.0
30.6769 -20.3846 0.0
30.5725 -26.6831 0.0
34.9159 -21.7165 0.0
33.5826 -20.2737 0.0
32.6846 -19.8936 0.0
-23.0854 -8.20759 0.0
-23.0787 -7.7968 0.0
-30.433 -4.74763 0.0
-32.0009 -5.21341 0.0
-30.2264 -9.51073 0.0
19.246 57.3479 0.0
17.4646 57.0122 0.0
15.2988 50.5416 0.0
15.3798 50.4267 0.0
16.4656 49.7809 0.0
18.5856 50.1456 0.0
20.5335 52.7163 0.0
-41.7603 -26.0817 0.0
-41.0115 -27.0474 0.0
-33.1074 -30.7295 0.0
-32.5901 -29.5405 0.0
-32.6373 -29.0898 0.0
-39.2408 -24.6647 0.0
-40.8465 -24.5696 0.0
-41.6315 -25.0208 0.0
2.10722 -15.695 0.0
2.19282 -18.31 0.0
4.91593 -26.1855 0.0
7.06031 -23.988 0.0
7.21609 -19.4443 0.0
3.45112 -16.6353 0.0
13.7027 -9.6738 0.0
12.4459 -13.6634 0.0
15.2151 -15.6577 0.0
15.6405 -15.6991 0.0
16.4472 -15.7032 0.0
19.2515 -10.465 0.0
-22.7156 -2.82502 0.0
-24.0966 2.67171 0.0
-29.7384 1.26424 0.0
-27.7473 -2.25328 0.0
-22.9819 -35.673 0.0
-22.4401 -36.0188 0.0
-14.2347 -35.0201 0.0
-14.3013 -33.065 0.0
-16.3836 -31.9816 0.0
14.1723 -24.0011 0.0
14.8072 -23.8326 0.0
15.4466 -16.5575 0.0
15.0212 -16.5161 0.0
13.1878 -19.1765 0.0
10.761 -23.3539 0.0
-1.90639 36.6439 0.0
1.22404 36.8845 0.0
3.43177 42.1084 0.0
-0.85289 41.853 0.0
-1.46671 40.9921 0.0
-2.58372 37.3368 0.0
-17.2182 -11.2159 0.0
-17.0396 -6.34499 0.0
-17.1349 -5.27503 0.0
-17.5253 -4.59887 0.0
-18.9199 -4.50275 0.0
-21.1945 -4.41683 0.0
-22.1861 -7.80817 0.0
-22.1928 -8.21896 0.0
-21.9606 -8.8399 0.0
15.6699 -41.9573 0.0
15.6487 -42.4954 0.0
18.1938 -46.9081 0.0
20.0681 -45.8205 0.0
20.3818 -39.2692 0.0
19.9532 -38.5048 0.0
18.6935 -19.1634 0.0
19.0693 -23.1211 0.0
20.3409 -24.1174 0.0
23.2321 -22.3891 0.0
24.7298 -18.045 0.0
60.2703 0.167267 0.0
59.9947 1.06256 0.0
55.8976 -3.11906 0.0
55.5897 -4.0976 0.0
55.1648 -5.51449 0.0
57.9815 -7.03107 0.0
59.3837 -7.63634 0.0
60.1769 -5.71218 0.0
37.7041 23.3333 0.0
37.0245 23.2986 0.0
38.1325 14.7067 0.0
40.3786 15.3807 0.0
42.4056 18.8963 0.0
41.3687 20.2092 0.0
-0.684002 -19.2177 0.0
2.00701 -26.9749 0.0
4.46451 -26.8417 0.0
4.63463 -26.3894 0.0
1.91151 -18.5139 0.0
-17.2151 -41.9938 0.0
-11.3141 -44.5041 0.0
-15.3324 -38.0842 0.0
-17.2232 -39.7386 0.0
-22.9462 37.2594 0.0
-21.3281 37.6838 0.0
-19.2597 44.8362 0.0
-25.0229 43.5694 0.0
-25.4283 43.1116 0.0
0.95212 -35.6132 0.0
3.44499 -35.9893 0.0
5.77766 -36.1064 0.0
6.13583 -32.9598 0.0
5.93185 -29.5611 0.0
5.32442 -28.9846 0.0
-46.0005 -2.42971 0.0
-45.9443 -2.80687 0.0
-40.0123 -6.34763 0.0
-38.3603 -3.21695 0.0
-38.1687 -2.08719 0.0
-38.5633 -1.35053 0.0
-41.3726 -0.363132 0.0
-45.2454 -0.475262 0.0
-6.28337 1.92025 0.0
-8.8614 -0.116563 0.0
-2.41683 -6.60907 0.0
-3.68302 -0.443288 0.0
-4.10211 0.46151 0.0
37.6405 0.598747 0.0
39.8483 2.3018 0.0
39.2843 7.04681 0.0
37.9173 7.7546 0.0
35.4658 5.69832 0.0
-12.5276 -49.1542 0.0
-11.8983 -49.5291 0.0
-7.26933 -48.2113 0.0
-10.3241 -45.3092 0.0
-11.0601 -45.0063 0.0
-16.9611 -42.4959 0.0
-17.3097 -43.1481 0.0
-42.8241 9.78149 0.0
-40.6838 8.06665 0.0
-36.2663 9.14675 0.0
-39.4088 11.3952 0.0
-43.6828 13.4269 0.0
-43.6222 10.9898 0.0
-1.09174 7.8276 0.0
-0.998625 8.84041 0.0
-3.61392 11.8632 0.0
-7.75871 9.52943 0.0
-7.721 8.31153 0.0
-6.51258 5.69431 0.0
-24.4117 3.13612 0.0
-24.2366 3.79432 0.0
-24.653 4.5711 0.0
-26.2334 5.69033 0.0
-31.9394 7.50248 0.0
-32.3324 7.11861 0.0
-33.0856 4.85976 0.0
-31.4578 2.57438 0.0
-30.0535 1.72864 0.0
-47.7224 5.55472 0.0
-49.7068 6.02366 0.0
-53.9924 2.65767 0.0
-46.4539 0.700523 0.0
-47.5431 5.07108 0.0
-32.0967 -44.6963 0.0
-31.8159 -43.943 0.0
-33.8062 -38.9239 0.0
-35.5802 -34.7242 0.0
-35.8874 -34.7089 0.0
-39.0726 -39.0246 0.0
-34.1539 -43.8569 0.0
-20.6395 56.7531 0.0
-20.8931 56.4174 0.0
-20.9882 55.4127 0.0
-20.5452 54.9239 0.0
-13.8822 54.0057 0.0
-11.9544 55.1637 0.0
-11.5363 57.4899 0.0
-24.2306 -35.1693 0.0
-23.9774 -35.2288 0.0
-19.4527 -28.8423 0.0
-20.4151 -27.83 0.0
-23.2134 -28.9518 0.0
-24.6699 -32.2189 0.0
20.0029 10.6205 0.0
21.644 13.8949 0.0
21.2014 19.5776 0.0
20.4511 18.2797 0.0
18.1196 14.2423 0.0
18.154 11.9878 0.0
13.2427 -38.7142 0.0
12.8207 -37.9293 0.0
9.9028 -39.7022 0.0
[...]
<CellData Scalars="cell variable 4" Vectors="cell vector">
<DataArray type="Float64" NumberOfComponents="3" Name="cell vector" format="ascii">
0 0 0
0 0 0
0 0 0
0 0 0
0 0 0
0 0 0
0 0 0
0 0 0
0 0 0
0 0 0
0 0 0
0 0 0
0 0 0
0 0 0
0 0 0
0 0 0
0 0 0
0 0 0
0 0 0
0 0 0
0 0 0
0 0 0
0 0 0
0 0 0
0 0 0
0 0 0
0 0 0
0 0 0
0 0 0
0 0 0
0 0 0
0 0 0
0 0 0
0 0 0
0 0 0
0 0 0
0 0 0
0 0 0
0 0 0
0 0 0
0 0 0
0 0 0
0 0 0
0 0 0
0 0 0
0 0 0
0 0 0
0 0 0
0 0 0
0 0 0
0 0 0
0 0 0
0 0 0
0 0 0
0 0 0
0 0 0
0 0 0
0 0 0
0 0 0
0 0 0
0 0 0
0 0 0
0 0 0
0 0 0
0 0 0
0 0 0
0 0 0
0 0 0
0 0 0
0 0 0
0 0 0
0 0 0
0 0 0
0 0 0
0 0 0
0 0 0
0 0 0
0 0 0
0 0 0
0 0 0
0 0 0
0 0 0
0 0 0
0 0 0
0 0 0
0 0 0
0 0 0
0 0 0
0 0 0
0 0 0
0 0 0
0 0 0
0 0 0
0 0 0
0 0 0
0 0 0
0 0 0
0 0 0
0 0 0
0 0 0
0 0 0
0 0 0
0 0 0
0 0 0
0 0 0
0 0 0
0 0 0
0 0 0
0 0 0
0 0 0
0 0 0
0 0 0
0 0 0
0 0 0
0 0 0
0 0 0
0 0 0
0 0 0
0 0 0
0 0 0
0 0 0
0 0 0
0 0 0
0 0 0
0 0 0
0 0 0
0 0 0
0 0 0
0 0 0
0 0 0
0 0 0
0 0 0
0 0 0
0 0 0
0 0 0
0 0 0
0 0 0
0 0 0
0 0 0
0 0 0
0 0 0
0 0 0
0 0 0
0 0 0
0 0 0
0 0 0
0 0 0
0 0 0
0 0 0
0 0 0
0 0 0
0 0 0
0 0 0
0 0 0
0 0 0
0 0 0
0 0 0
0 0 0
0 0 0
0 0 0
0 0 0
0 0 0
0 0 0
0 0 0
0 0 0
0 0 0
0 0 0
0 0 0
0 0 0
0 0 0
0 0 0
0 0 0
0 0 0
0 0 0
0 0 0
0 0 0
0 0 0
0 0 0
0 0 0
0 0 0
0 0 0
0 0 0
0 0 0
0 0 0
0 0 0
0 0 0
0 0 0
0 0 0
0 0 0
0 0 0
0 0 0
0 0 0
0 0 0
0 0 0
0 0 0
0 0 0
0 0 0
0 0 0
0 0 0
0 0 0
0 0 0
0 0 0
0 0 0
0 0 0
0 0 0
0 0 0
0 0 0
0 0 0
0 0 0
0 0 0
0 0 0
0 0 0
0 0 0
0 0 0
0 0 0
0 0 0
0 0 0
0 0 0
0 0 0
0 0 0
0 0 0
0 0 0
0 0 0
0 0 0
0 0 0
0 0 0
0 0 0
0 0 0
0 0 0
0 0 0
0 0 0
0 0 0
0 0 0
0 0 0
0 0 0
0 0 0
0 0 0
0 0 0
0 0 0
0 0 0
0 0 0
0 0 0
0 0 0
0 0 0
0 0 0
0 0 0
0 0 0
0 0 0
0 0 0
0 0 0
0 0 0
0 0 0
0 0 0
0 0 0
0 0 0
0 0 0
0 0 0
0 0 0
0 0 0
0 0 0
0 0 0
0 0 0
0 0 0
0 0 0
0 0 0
0 0 0
0 0 0
0 0 0
0 0 0
0 0 0
0 0 0
0 0 0
0 0 0
0 0 0
0 0 0
0 0 0
0 0 0
0 0 0
0 0 0
0 0 0
0 0 0
0 0 0
0 0 0
0 0 0
0 0 0
0 0 0
0 0 0
0 0 0
0 0 0
0 0 0
0 0 0
0 0 0
0 0 0
0 0 0
0 0 0
0 0 0
0 0 0
0 0 0
0 0 0
0 0 0
0 0 0
0 0 0
0 0 0
0 0 0
0 0 0
0 0 0
0 0 0
0 0 0
0 0 0
0 0 0
0 0 0
0 0 0
0 0 0
0 0 0
0 0 0
0 0 0
0 0 0
0 0 0
0 0 0
0 0 0
0 0 0
0 0 0
0 0 0
0 0 0
0 0 0
0 0 0
0 0 0
0 0 0
0 0 0
0 0 0
0 0 0
0 0 0
0 0 0
0 0 0
0 0 0
0 0 0
0 0 0
0 0 0
0 0 0
0 0 0
0 0 0
0 0 0
0 0 0
0 0 0
0 0 0
0 0 0
0 0 0
0 0 0
0 0 0
0 0 0
0 0 0
0 0 0
0 0 0
0 0 0
0 0 0
0 0 0
0 0 0
0 0 0
0 0 0
0 0 0
0 0 0
0 0 0
0 0 0
0 0 0
0 0 0
0 0 0
0 0 0
0 0 0
0 0 0
0 0 0
0 0 0
0 0 0
0 0 0
0 0 0
0 0 0
0 0 0
0 0 0
0 0 0
0 0 0
0 0 0
0 0 0
0 0 0
0 0 0
0 0 0
0 0 0
0 0 0
0 0 0
0 0 0
0 0 0
0 0 0
0 0 0
0 0 0
0 0 0
0 0 0
0 0 0
0 0 0
0 0 0
0 0 0
0 0 0
0 0 0
0 0 0
</DataArray>
<DataArray type="Float64" Name="cell vector length" format="ascii">
0 0 0 0 0 0 0 0 0 0 0 0 0 0 0 0 0 0 0 0 0 0 0 0 0 0 0 0 0 0 0 0 0 0 0 0 0 0 0 0 0 0 0 0 0 0 0 0 0 0 0 0 0 0 0 0 0 0 0 0 0 0 0 0 0 0 0 0 0 0 0 0 0 0 0 0 0 0 0 0 0 0 0 0 0 0 0 0 0 0 0 0 0 0 0 0 0 0 0 0 0 0 0 0 0 0 0 0 0 0 0 0 0 0 0 0 0 0 0 0 0 0 0 0 0 0 0 0 0 0 0 0 0 0 0 0 0 0 0 0 0 0 0 0 0 0 0 0 0 0 0 0 0 0 0 0 0 0 0 0 0 0 0 0 0 0 0 0 0 0 0 0 0 0 0 0 0 0 0 0 0 0 0 0 0 0 0 0 0 0 0 0 0 0 0 0 0 0 0 0 0 0 0 0 0 0 0 0 0 0 0 0 0 0 0 0 0 0 0 0 0 0 0 0 0 0 0 0 0 0 0 0 0 0 0 0 0 0 0 0 0 0 0 0 0 0 0 0 0 0 0 0 0 0 0 0 0 0 0 0 0 0 0 0 0 0 0 0 0 0 0 0 0 0 0 0 0 0 0 0 0 0 0 0 0 0 0 0 0 0 0 0 0 0 0 0 0 0 0 0 0 0 0 0 0 0 0 0 0 0 0 0 0 0 0 0 0 0 0 0 0 0 0 0 0 0 0 0 0 0 0 0 0 0 0 0 0 0 0 0 0 0 0 0 0 0 0 0 0 0 0 0 0 0 0 0 0 0 0 0 0 0 0 0 0 0 0 0 0 0 0 0 0 0 0 0 0 0 0 0 0 0 0 0 0 0 0 0 0 0 0 0 0 0 0 0 0 0 0 0 0 
</DataArray>
<DataArray type="Float64" Name="cell variable 4" format="ascii">
1.11547 1.06245 1.12037 1.07467 0.90618 0.90618 1.11547 0.94865 1.11547 0.90618 1.14226 1.04461 1.11547 1.04461 0.912892 0.919422 1.07467 1.10185 1.10185 0.94865 0.919422 1.12037 1.06245 1.00681 1.07467 1.10185 1.00681 1.14226 0.912892 1.11547 0.980966 0.99432 0.980966 1.04461 1.11547 1.12037 1.07467 0.912892 0.912892 1.14226 0.980966 1.11547 0.99432 1.10185 0.919422 1.10185 1.11547 1.12037 0.980966 0.919422 1.11547 1.11547 1.12037 1.04461 1.11547 1.07467 1.12037 0.94865 1.11547 0.912892 1.10185 1.11547 1.04461 1.07467 1.04461 0.919422 1.12037 1.10185 1.04461 1.00681 1.12037 1.12037 1.00681 0.90618 0.763876 1.04461 1.14226 0.94865 1.00681 1.11547 1.04461 0.919422 1.11547 0.848855 1.11547 1.11547 1.04461 1.10185 1.14226 1.07467 0.919422 0.980966 1.11547 1.04461 0.980966 0.980966 1.00681 0.919422 1.12037 1.11547 1.04461 1.04461 0.919422 0.94865 1.06245 1.06245 0.99432 1.12037 1.04461 0.912892 1.00681 1.00681 1.10185 1.11547 1.00681 1.14226 1.14226 1.07467 1.11547 1.14226 1.14226 1.07467 1.00681 0.94865 1.00681 1.14226 1.04461 1.07467 0.99432 1.04461 1.11547 1.11547 1.00681 1.07467 1.11547 1.06245 1.06245 1.11547 1.04461 0.919422 1.10185 1.00681 1.12037 0.919422 0.90618 0.99432 1.07467 1.07467 0.980966 0.848855 1.04461 1.14226 0.919422 0.919422 1.00681 1.00681 1.10185 1.12037 1.12037 1.04461 1.07467 1.00681 1.04461 1.06245 1.00681 1.14226 1.04461 1.11547 1.11547 1.10185 1.10185 0.919422 1.12037 0.919422 1.00681 1.04461 1.00681 0.919422 1.12037 0.919422 1.12037 1.00681 1.00681 1.11547 1.00681 0.980966 1.06245 1.11547 1.04461 1.06245 1.07467 0.980966 1.07467 0.90618 0.99432 0.919422 0.94865 0.94865 1.04461 1.11547 0.94865 0.90618 1.11547 0.912892 1.12037 1.04461 0.94865 1.04461 1.04461 0.980966 1.07467 1.10185 1.07467 1.06245 0.980966 1.10185 0.94865 1.12037 1.07467 1.07467 1.04461 1.04461 0.980966 1.10185 1.04461 1.06245 1.11547 1.10185 1.11547 0.912892 1.07467 0.90618 0.848855 1.10185 1.04461 0.919422 1.10185 1.10185 0.980966 0.980966 1.10185 0.94865 0.919422 1.11547 0.94865 1.04461 0.90618 1.06245 1.07467 1.07467 1.10185 0.848855 0.980966 1.14226 0.919422 1.12037 1.10185 0.99432 1.06245 1.14226 1.11547 1.14226 1.06245 1.11547 0.94865 1.14226 1.14226 1.04461 1.14226 0.919422 1.11547 1.00681 1.12037 1.04461 1.14226 1.11547 1.00681 0.980966 0.94865 1.11547 1.00681 1.06245 1.10185 1.04461 1.14226 1.12037 1.12037 1.14226 1.10185 1.00681 1.11547 1.14226 0.94865 0.90618 1.10185 1.07467 1.00681 1.12037 1.06245 1.00681 0.919422 1.10185 1.12037 1.10185 0.912892 1.00681 1.11547 1.07467 0.94865 1.06245 1.07467 0.919422 1.12037 1.07467 0.912892 1.07467 1.10185 1.11547 0.980966 1.10185 1.11547 1.12037 1.10185 1.10185 0.919422 1.04461 1.07467 1.14226 1.07467 1.00681 1.04461 1.14226 1.14226 1.11547 1.11547 0.980966 0.90618 0.94865 1.04461 0.919422 0.90618 1.04461 1.00681 0.94865 0.99432 1.06245 0.8063 1.11547 1.11547 1.12037 0.90618 1.12037 1.07467 1.12037 1.00681 0.919422 1.00681 0.90618 1.04461 1.14226 1.12037 1.07467 0.919422 0.94865 0.919422 1.14226 0.980966 1.14226 1.11547 1.11547 0.980966 1.12037 1.00681 1.10185 1.11547 1.04461 1.12037 0.919422 1.10185 1.07467 1.10185 1.11547 1.07467 1.00681 1.11547 0.919422 1.04461 0.90618 1.14226 0.912892 1.07467 1.04461 0.980966 1.07467 1.04461 1.11547 1.04461 1.14226 1.04461 1.14226 0.94865 
</DataArray>
<DataArray type="Float64" Name="cell variable 5" format="ascii">
0.00797274 0.00878122 0.00790366 0.00858434 0.0120314 0.0120314 0.00797274 0.0109898 0.00797274 0.0120314 0.00760594 0.00908091 0.00797274 0.00908091 0.0118572 0.0116913 0.00858434 0.00816951 0.00816951 0.0109898 0.0116913 0.00790366 0.00878122 0.00976872 0.00858434 0.00816951 0.00976872 0.00760594 0.0118572 0.00797274 0.0102849 0.0100133 0.0102849 0.00908091 0.00797274 0.00790366 0.00858434 0.0118572 0.0118572 0.00760594 0.0102849 0.00797274 0.0100133 0.00816951 0.0116913 0.00816951 0.00797274 0.00790366 0.0102849 0.0116913 0.00797274 0.00797274 0.00790366 0.00908091 0.00797274 0.00858434 0.00790366 0.0109898 0.00797274 0.0118572 0.00816951 0.00797274 0.00908091 0.00858434 0.00908091 0.0116913 0.00790366 0.00816951 0.00908091 0.00976872 0.00790366 0.00790366 0.00976872 0.0120314 0.016849 0.00908091 0.00760594 0.0109898 0.00976872 0.00797274 0.00908091 0.0116913 0.00797274 0.0136882 0.00797274 0.00797274 0.00908091 0.00816951 0.00760594 0.00858434 0.0116913 0.0102849 0.00797274 0.00908091 0.0102849 0.0102849 0.00976872 0.0116913 0.00790366 0.00797274 0.00908091 0.00908091 0.0116913 0.0109898 0.00878122 0.00878122 0.0100133 0.00790366 0.00908091 0.0118572 0.00976872 0.00976872 0.00816951 0.00797274 0.00976872 0.00760594 0.00760594 0.00858434 0.00797274 0.00760594 0.00760594 0.00858434 0.00976872 0.0109898 0.00976872 0.00760594 0.00908091 0.00858434 0.0100133 0.00908091 0.00797274 0.00797274 0.00976872 0.00858434 0.00797274 0.00878122 0.00878122 0.00797274 0.00908091 0.0116913 0.00816951 0.00976872 0.00790366 0.0116913 0.0120314 0.0100133 0.00858434 0.00858434 0.0102849 0.0136882 0.00908091 0.00760594 0.0116913 0.0116913 0.00976872 0.00976872 0.00816951 0.00790366 0.00790366 0.00908091 0.00858434 0.00976872 0.00908091 0.00878122 0.00976872 0.00760594 0.00908091 0.00797274 0.00797274 0.00816951 0.00816951 0.0116913 0.00790366 0.0116913 0.00976872 0.00908091 0.00976872 0.0116913 0.00790366 0.0116913 0.00790366 0.00976872 0.00976872 0.00797274 0.00976872 0.0102849 0.00878122 0.00797274 0.00908091 0.00878122 0.00858434 0.0102849 0.00858434 0.0120314 0.0100133 0.0116913 0.0109898 0.0109898 0.00908091 0.00797274 0.0109898 0.0120314 0.00797274 0.0118572 0.00790366 0.00908091 0.0109898 0.00908091 0.00908091 0.0102849 0.00858434 0.00816951 0.00858434 0.00878122 0.0102849 0.00816951 0.0109898 0.00790366 0.00858434 0.00858434 0.00908091 0.00908091 0.0102849 0.00816951 0.00908091 0.00878122 0.00797274 0.00816951 0.00797274 0.0118572 0.00858434 0.0120314 0.0136882 0.00816951 0.00908091 0.0116913 0.00816951 0.00816951 0.0102849 0.0102849 0.00816951 0.0109898 0.0116913 0.00797274 0.0109898 0.00908091 0.0120314 0.00878122 0.00858434 0.00858434 0.00816951 0.0136882 0.0102849 0.00760594 0.0116913 0.00790366 0.00816951 0.0100133 0.00878122 0.00760594 0.00797274 0.00760594 0.00878122 0.00797274 0.0109898 0.00760594 0.00760594 0.00908091 0.00760594 0.0116913 0.00797274 0.00976872 0.00790366 0.00908091 0.00760594 0.00797274 0.00976872 0.0102849 0.0109898 0.00797274 0.00976872 0.00878122 0.00816951 0.00908091 0.00760594 0.00790366 0.00790366 0.00760594 0.00816951 0.00976872 0.00797274 0.00760594 0.0109898 0.0120314 0.00816951 0.00858434 0.00976872 0.00790366 0.00878122 0.00976872 0.0116913 0.00816951 0.00790366 0.00816951 0.0118572 0.00976872 0.00797274 0.00858434 0.0109898 0.00878122 0.00858434 0.0116913 0.00790366 0.00858434 0.0118572 0.00858434 0.00816951 0.00797274 0.0102849 0.00816951 0.00797274 0.00790366 0.00816951 0.00816951 0.0116913 0.00908091 0.00858434 0.00760594 0.00858434 0.00976872 0.00908091 0.00760594 0.00760594 0.00797274 0.00797274 0.0102849 0.0120314 0.0109898 0.00908091 0.0116913 0.0120314 0.00908091 0.00976872 0.0109898 0.0100133 0.00878122 0.0151488 0.00797274 0.00797274 0.00790366 0.0120314 0.00790366 0.00858434 0.00790366 0.00976872 0.0116913 0.00976872 0.0120314 0.00908091 0.00760594 0.00790366 0.00858434 0.0116913 0.0109898 0.0116913 0.00760594 0.0102849 0.00760594 0.00797274 0.00797274 0.0102849 0.00790366 0.00976872 0.00816951 0.00797274 0.00908091 0.00790366 0.0116913 0.00816951 0.00858434 0.00816951 0.00797274 0.00858434 0.00976872 0.00797274 0.0116913 0.00908091 0.0120314 0.00760594 0.0118572 0.00858434 0.00908091 0.0102849 0.00858434 0.00908091 0.00797274 0.00908091 0.00760594 0.00908091 0.00760594 0.0109898 
</DataArray>
<DataArray type="Float64" Name="cell variable 6" format="ascii">
4.32387e-06 5.74138e-06 4.21468e-06 5.3719e-06 1.4406e-05 1.4406e-05 4.32387e-06 1.10661e-05 4.32387e-06 1.4406e-05 3.76475e-06 6.33494e-06 4.32387e-06 6.33494e-06 1.38076e-05 1.32528e-05 5.3719e-06 4.64493e-06 4.64493e-06 1.10661e-05 1.32528e-05 4.21468e-06 5.74138e-06 7.8448e-06 5.3719e-06 4.64493e-06 7.8448e-06 3.76475e-06 1.38076e-05 4.32387e-06 9.11938e-06 8.43313e-06 9.11938e-06 6.33494e-06 4.32387e-06 4.21468e-06 5.3719e-06 1.38076e-05 1.38076e-05 3.76475e-06 9.11938e-06 4.32387e-06 8.43313e-06 4.64493e-06 1.32528e-05 4.64493e-06 4.32387e-06 4.21468e-06 9.11938e-06 1.32528e-05 4.32387e-06 4.32387e-06 4.21468e-06 6.33494e-06 4.32387e-06 5.3719e-06 4.21468e-06 1.10661e-05 4.32387e-06 1.38076e-05 4.64493e-06 4.32387e-06 6.33494e-06 5.3719e-06 6.33494e-06 1.32528e-05 4.21468e-06 4.64493e-06 6.33494e-06 7.8448e-06 4.21468e-06 4.21468e-06 7.8448e-06 1.4406e-05 3.81646e-05 6.33494e-06 3.76475e-06 1.10661e-05 7.8448e-06 4.32387e-06 6.33494e-06 1.32528e-05 4.32387e-06 2.09522e-05 4.32387e-06 4.32387e-06 6.33494e-06 4.64493e-06 3.76475e-06 5.3719e-06 1.32528e-05 9.11938e-06 4.32387e-06 6.33494e-06 9.11938e-06 9.11938e-06 7.8448e-06 1.32528e-05 4.21468e-06 4.32387e-06 6.33494e-06 6.33494e-06 1.32528e-05 1.10661e-05 5.74138e-06 5.74138e-06 8.43313e-06 4.21468e-06 6.33494e-06 1.38076e-05 7.8448e-06 7.8448e-06 4.64493e-06 4.32387e-06 7.8448e-06 3.76475e-06 3.76475e-06 5.3719e-06 4.32387e-06 3.76475e-06 3.76475e-06 5.3719e-06 7.8448e-06 1.10661e-05 7.8448e-06 3.76475e-06 6.33494e-06 5.3719e-06 8.43313e-06 6.33494e-06 4.32387e-06 4.32387e-06 7.8448e-06 5.3719e-06 4.32387e-06 5.74138e-06 5.74138e-06 4.32387e-06 6.33494e-06 1.32528e-05 4.64493e-06 7.8448e-06 4.21468e-06 1.32528e-05 1.4406e-05 8.43313e-06 5.3719e-06 5.3719e-06 9.11938e-06 2.09522e-05 6.33494e-06 3.76475e-06 1.32528e-05 1.32528e-05 7.8448e-06 7.8448e-06 4.64493e-06 4.21468e-06 4.21468e-06 6.33494e-06 5.3719e-06 7.8448e-06 6.33494e-06 5.74138e-06 7.8448e-06 3.76475e-06 6.33494e-06 4.32387e-06 4.32387e-06 4.64493e-06 4.64493e-06 1.32528e-05 4.21468e-06 1.32528e-05 7.8448e-06 6.33494e-06 7.8448e-06 1.32528e-05 4.21468e-06 1.32528e-05 4.21468e-06 7.8448e-06 7.8448e-06 4.32387e-06 7.8448e-06 9.11938e-06 5.74138e-06 4.32387e-06 6.33494e-06 5.74138e-06 5.3719e-06 9.11938e-06 5.3719e-06 1.4406e-05 8.43313e-06 1.32528e-05 1.10661e-05 1.10661e-05 6.33494e-06 4.32387e-06 1.10661e-05 1.4406e-05 4.32387e-06 1.38076e-05 4.21468e-06 6.33494e-06 1.10661e-05 6.33494e-06 6.33494e-06 9.11938e-06 5.3719e-06 4.64493e-06 5.3719e-06 5.74138e-06 9.11938e-06 4.64493e-06 1.10661e-05 4.21468e-06 5.3719e-06 5.3719e-06 6.33494e-06 6.33494e-06 9.11938e-06 4.64493e-06 6.33494e-06 5.74138e-06 4.32387e-06 4.64493e-06 4.32387e-06 1.38076e-05 5.3719e-06 1.4406e-05 2.09522e-05 4.64493e-06 6.33494e-06 1.32528e-05 4.64493e-06 4.64493e-06 9.11938e-06 9.11938e-06 4.64493e-06 1.10661e-05 1.32528e-05 4.32387e-06 1.10661e-05 6.33494e-06 1.4406e-05 5.74138e-06 5.3719e-06 5.3719e-06 4.64493e-06 2.09522e-05 9.11938e-06 3.76475e-06 1.32528e-05 4.21468e-06 4.64493e-06 8.43313e-06 5.74138e-06 3.76475e-06 4.32387e-06 3.76475e-06 5.74138e-06 4.32387e-06 1.10661e-05 3.76475e-06 3.76475e-06 6.33494e-06 3.76475e-06 1.32528e-05 4.32387e-06 7.8448e-06 4.21468e-06 6.33494e-06 3.76475e-06 4.32387e-06 7.8448e-06 9.11938e-06 1.10661e-05 4.32387e-06 7.8448e-06 5.74138e-06 4.64493e-06 6.33494e-06 3.76475e-06 4.21468e-06 4.21468e-06 3.76475e-06 4.64493e-06 7.8448e-06 4.32387e-06 3.76475e-06 1.10661e-05 1.4406e-05 4.64493e-06 5.3719e-06 7.8448e-06 4.21468e-06 5.74138e-06 7.8448e-06 1.32528e-05 4.64493e-06 4.21468e-06 4.64493e-06 1.38076e-05 7.8448e-06 4.32387e-06 5.3719e-06 1.10661e-05 5.74138e-06 5.3719e-06 1.32528e-05 4.21468e-06 5.3719e-06 1.38076e-05 5.3719e-06 4.64493e-06 4.32387e-06 9.11938e-06 4.64493e-06 4.32387e-06 4.21468e-06 4.64493e-06 4.64493e-06 1.32528e-05 6.33494e-06 5.3719e-06 3.76475e-06 5.3719e-06 7.8448e-06 6.33494e-06 3.76475e-06 3.76475e-06 4.32387e-06 4.32387e-06 9.11938e-06 1.4406e-05 1.10661e-05 6.33494e-06 1.32528e-05 1.4406e-05 6.33494e-06 7.8448e-06 1.10661e-05 8.43313e-06 5.74138e-06 2.80904e-05 4.32387e-06 4.32387e-06 4.21468e-06 1.4406e-05 4.21468e-06 5.3719e-06 4.21468e-06 7.8448e-06 1.32528e-05 7.8448e-06 1.4406e-05 6.33494e-06 3.76475e-06 4.21468e-06 5.3719e-06 1.32528e-05 1.10661e-05 1.32528e-05 3.76475e-06 9.11938e-06 3.76475e-06 4.32387e-06 4.32387e-06 9.11938e-06 4.21468e-06 7.8448e-06 4.64493e-06 4.32387e-06 6.33494e-06 4.21468e-06 1.32528e-05 4.64493e-06 5.3719e-06 4.64493e-06 4.32387e-06 5.3719e-06 7.8448e-06 4.32387e-06 1.32528e-05 6.33494e-06 1.4406e-05 3.76475e-06 1.38076e-05 5.3719e-06 6.33494e-06 9.11938e-06 5.3719e-06 6.33494e-06 4.32387e-06 6.33494e-06 3.76475e-06 6.33494e-06 3.76475e-06 1.10661e-05 
</DataArray>
<DataArray type="Float64" Name="cell variable 7" format="ascii">
0.0788486 0.0886341 0.0779382 0.0863829 0.118245 0.118245 0.0788486 0.109939 0.0788486 0.118245 0.0738515 0.091923 0.0788486 0.091923 0.116913 0.115625 0.0863829 0.0813708 0.0813708 0.109939 0.115625 0.0779382 0.0886341 0.0989326 0.0863829 0.0813708 0.0989326 0.0738515 0.116913 0.0788486 0.103782 0.10127 0.103782 0.091923 0.0788486 0.0779382 0.0863829 0.116913 0.116913 0.0738515 0.103782 0.0788486 0.10127 0.0813708 0.115625 0.0813708 0.0788486 0.0779382 0.103782 0.115625 0.0788486 0.0788486 0.0779382 0.091923 0.0788486 0.0863829 0.0779382 0.109939 0.0788486 0.116913 0.0813708 0.0788486 0.091923 0.0863829 0.091923 0.115625 0.0779382 0.0813708 0.091923 0.0989326 0.0779382 0.0779382 0.0989326 0.118245 0.148901 0.091923 0.0738515 0.109939 0.0989326 0.0788486 0.091923 0.115625 0.0788486 0.129973 0.0788486 0.0788486 0.091923 0.0813708 0.0738515 0.0863829 0.115625 0.103782 0.0788486 0.091923 0.103782 0.103782 0.0989326 0.115625 0.0779382 0.0788486 0.091923 0.091923 0.115625 0.109939 0.0886341 0.0886341 0.10127 0.0779382 0.091923 0.116913 0.0989326 0.0989326 0.0813708 0.0788486 0.0989326 0.0738515 0.0738515 0.0863829 0.0788486 0.0738515 0.0738515 0.0863829 0.0989326 0.109939 0.0989326 0.0738515 0.091923 0.0863829 0.10127 0.091923 0.0788486 0.0788486 0.0989326 0.0863829 0.0788486 0.0886341 0.0886341 0.0788486 0.091923 0.115625 0.0813708 0.0989326 0.0779382 0.115625 0.118245 0.10127 0.0863829 0.0863829 0.103782 0.129973 0.091923 0.0738515 0.115625 0.115625 0.0989326 0.0989326 0.0813708 0.0779382 0.0779382 0.091923 0.0863829 0.0989326 0.091923 0.0886341 0.0989326 0.0738515 0.091923 0.0788486 0.0788486 0.0813708 0.0813708 0.115625 0.0779382 0.115625 0.0989326 0.091923 0.0989326 0.115625 0.0779382 0.115625 0.0779382 0.0989326 0.0989326 0.0788486 0.0989326 0.103782 0.0886341 0.0788486 0.091923 0.0886341 0.0863829 0.103782 0.0863829 0.118245 0.10127 0.115625 0.109939 0.109939 0.091923 0.0788486 0.109939 0.118245 0.0788486 0.116913 0.0779382 0.091923 0.109939 0.091923 0.091923 0.103782 0.0863829 0.0813708 0.0863829 0.0886341 0.103782 0.0813708 0.109939 0.0779382 0.0863829 0.0863829 0.091923 0.091923 0.103782 0.0813708 0.091923 0.0886341 0.0788486 0.0813708 0.0788486 0.116913 0.0863829 0.118245 0.129973 0.0813708 0.091923 0.115625 0.0813708 0.0813708 0.103782 0.103782 0.0813708 0.109939 0.115625 0.0788486 0.109939 0.091923 0.118245 0.0886341 0.0863829 0.0863829 0.0813708 0.129973 0.103782 0.0738515 0.115625 0.0779382 0.0813708 0.10127 0.0886341 0.0738515 0.0788486 0.0738515 0.0886341 0.0788486 0.109939 0.0738515 0.0738515 0.091923 0.0738515 0.115625 0.0788486 0.0989326 0.0779382 0.091923 0.0738515 0.0788486 0.0989326 0.103782 0.109939 0.0788486 0.0989326 0.0886341 0.0813708 0.091923 0.0738515 0.0779382 0.0779382 0.0738515 0.0813708 0.0989326 0.0788486 0.0738515 0.109939 0.118245 0.0813708 0.0863829 0.0989326 0.0779382 0.0886341 0.0989326 0.115625 0.0813708 0.0779382 0.0813708 0.116913 0.0989326 0.0788486 0.0863829 0.109939 0.0886341 0.0863829 0.115625 0.0779382 0.0863829 0.116913 0.0863829 0.0813708 0.0788486 0.103782 0.0813708 0.0788486 0.0779382 0.0813708 0.0813708 0.115625 0.091923 0.0863829 0.0738515 0.0863829 0.0989326 0.091923 0.0738515 0.0738515 0.0788486 0.0788486 0.103782 0.118245 0.109939 0.091923 0.115625 0.118245 0.091923 0.0989326 0.109939 0.10127 0.0886341 0.139181 0.0788486 0.0788486 0.0779382 0.118245 0.0779382 0.0863829 0.0779382 0.0989326 0.115625 0.0989326 0.118245 0.091923 0.0738515 0.0779382 0.0863829 0.115625 0.109939 0.115625 0.0738515 0.103782 0.0738515 0.0788486 0.0788486 0.103782 0.0779382 0.0989326 0.0813708 0.0788486 0.091923 0.0779382 0.115625 0.0813708 0.0863829 0.0813708 0.0788486 0.0863829 0.0989326 0.0788486 0.115625 0.091923 0.118245 0.0738515 0.116913 0.0863829 0.091923 0.103782 0.0863829 0.091923 0.0788486 0.091923 0.0738515 0.091923 0.0738515 0.109939 
</DataArray>
<DataArray type="Float64" Name="cell variable 8" format="ascii">