<VTKFile type="UnstructuredGrid" version="0.1">
<UnstructuredGrid>
<Piece  NumberOfPoints="    2443" NumberOfCells="     408">
<Points>
<DataArray type="Float64" NumberOfComponents="3" format="ascii">
26.0413 -23.1962 0.0
26.269 -19.3911 0.0
20.0487 -21.9177 0.0
21.887 -26.3624 0.0
23.5876 -26.4653 0.0
30.739 -32.4687 0.0
30.6162 -31.9948 0.0
25.6413 -31.7411 0.0
25.0396 -32.2513 0.0
21.975 -36.9454 0.0
-19.0671 44.1951 0.0
-21.5764 44.028 0.0
-22.8923 43.9228 0.0
-24.0583 42.9457 0.0
-21.5242 38.9359 0.0
-19.2875 39.1453 0.0
-60.934 6.99199 0.0
-60.9904 5.58291 0.0
-54.2326 6.21748 0.0
-54.2317 6.42393 0.0
-55.3329 7.87783 0.0
-58.8291 10.0986 0.0
37.7806 -5.73761 0.0
38.7872 -5.23139 0.0
36.9218 -0.636397 0.0
33.7762 -4.73326 0.0
34.7049 -6.6834 0.0
41.4409 -0.0843783 0.0
40.4471 -4.79249 0.0
44.0685 -7.72189 0.0
46.2691 -4.69473 0.0
14.4335 53.1995 0.0
17.5485 55.4375 0.0
12.852 57.6474 0.0
9.25902 55.2696 0.0
9.7666 54.6507 0.0
9.26748 -13.6902 0.0
12.592 -8.62217 0.0
11.5925 -7.10428 0.0
5.93342 -9.12315 0.0
-21.6509 -44.3098 0.0
-19.0815 -47.9824 0.0
-15.727 -44.088 0.0
-18.8498 -41.1371 0.0
-38.5123 31.8635 0.0
-38.4823 31.4523 0.0
-33.5559 28.5334 0.0
-32.9636 28.8925 0.0
-29.8241 32.2518 0.0
-40.1115 -6.59991 0.0
-39.6318 -8.58553 0.0
-36.5588 -9.24375 0.0
-32.0851 -9.22272 0.0
-31.3385 -8.32291 0.0
-31.7997 -5.67558 0.0
-32.4092 -4.7723 0.0
-25.591 -10.4083 0.0
-30.7199 -8.76219 0.0
-31.4665 -9.66201 0.0
-31.3616 -13.6513 0.0
-30.5095 -14.2126 0.0
-28.7329 -15.1322 0.0
-28.934 42.4071 0.0
-29.7464 45.4597 0.0
-36.1341 42.6324 0.0
-34.9108 40.3907 0.0
-32.1323 40.8951 0.0
-29.9926 41.3292 0.0
-0.0212035 -7.49625 0.0
-2.02816 -4.63791 0.0
-5.54698 -4.38369 0.0
-6.9944 -4.73746 0.0
-8.03872 -8.89158 0.0
-4.86472 -10.227 0.0
48.508 6.68545 0.0
48.1369 3.48546 0.0
53.517 4.02264 0.0
54.2249 7.93236 0.0
53.4127 7.91898 0.0
49.6498 7.60732 0.0
-45.6201 -17.8688 0.0
-44.1675 -20.2603 0.0
-43.0068 -20.25 0.0
-38.991 -16.3995 0.0
-40.062 -13.7602 0.0
-12.0209 30.5004 0.0
-11.6599 32.6423 0.0
-13.9827 34.4071 0.0
-15.8292 34.4297 0.0
-17.3089 33.2062 0.0
-18.738 30.136 0.0
-49.2618 26.0709 0.0
-51.7086 22.8286 0.0
-49.1528 17.5524 0.0
-47.3539 24.2839 0.0
-48.8794 25.9189 0.0
22.3765 -8.91644 0.0
26.084 -8.27894 0.0
27.7649 -4.93609 0.0
25.5276 -2.5735 0.0
25.1247 -2.45399 0.0
21.6212 28.3095 0.0
24.3747 30.0496 0.0
23.0708 32.7423 0.0
21.1067 33.2822 0.0
16.7608 33.3472 0.0
-54.868 8.42819 0.0
-53.7668 6.97428 0.0
-52.0878 9.15483 0.0
-50.8671 12.178 0.0
-53.9303 19.6375 0.0
-54.6907 19.2668 0.0
-12.9265 9.81705 0.0
-11.6204 9.63845 0.0
-8.28558 15.1331 0.0
-8.48755 15.466 0.0
-11.7717 15.7535 0.0
-14.1965 11.9785 0.0
-14.261 10.7921 0.0
17.7297 20.1694 0.0
19.2759 18.2524 0.0
19.4685 18.0546 0.0
25.0628 19.0532 0.0
25.6781 19.1734 0.0
23.4004 23.0836 0.0
20.5165 24.5405 0.0
22.1443 13.0288 0.0
24.5507 12.2752 0.0
26.6632 13.8381 0.0
27.1249 17.0553 0.0
27.1852 17.769 0.0
26.0394 18.6047 0.0
25.424 18.4845 0.0
-50.4881 -30.6867 0.0
-50.0038 -35.898 0.0
-48.2092 -37.2369 0.0
-47.2818 -36.5393 0.0
-45.9956 -33.9235 0.0
-27.6862 12.8137 0.0
-29.5839 12.337 0.0
-30.1254 10.0628 0.0
-28.7946 8.3031 0.0
-23.4036 8.01575 0.0
-25.0395 19.3222 0.0
-26.0209 20.6521 0.0
-30.9614 17.0676 0.0
-30.835 15.959 0.0
-29.6533 12.9992 0.0
-27.7556 13.4759 0.0
-27.5218 13.5767 0.0
54.0956 3.07743 0.0
52.9303 -1.20237 0.0
53.4829 -1.85109 0.0
57.2061 -1.64134 0.0
58.188 0.197 0.0
58.7623 3.14043 0.0
40.2354 -11.4299 0.0
39.3652 -11.3488 0.0
34.2522 -12.0191 0.0
34.0929 -12.4059 0.0
33.5196 -15.0303 0.0
35.1751 -16.0983 0.0
16.8421 -29.8984 0.0
16.9384 -31.7611 0.0
17.1922 -32.4322 0.0
24.5166 -31.8989 0.0
25.1183 -31.3888 0.0
23.6646 -27.5598 0.0
23.3474 -27.1746 0.0
21.6468 -27.0717 0.0
-32.536 -1.17836 0.0
-29.7329 0.244572 0.0
-33.2812 6.42453 0.0
-35.3204 5.14186 0.0
-34.9275 0.246987 0.0
6.41126 25.577 0.0
3.03861 26.9577 0.0
2.02882 26.4186 0.0
-2.497 22.9953 0.0
-1.28979 21.7034 0.0
-0.284073 21.8977 0.0
7.20134 16.5301 0.0
4.86712 17.0785 0.0
-1.117 13.679 0.0
1.03933 11.6908 0.0
1.94827 11.2889 0.0
5.17608 11.0775 0.0
6.9653 13.6199 0.0
7.58864 15.4393 0.0
-44.1788 6.02662 0.0
-44.8206 7.18976 0.0
-51.6131 8.47588 0.0
-53.292 6.29534 0.0
-53.2929 6.0889 0.0
-53.2668 5.90497 0.0
-48.2713 3.90497 0.0
-45.9371 3.73389 0.0
-45.627 4.04325 0.0
-44.2685 5.71261 0.0
-18.9489 -28.3719 0.0
-17.7999 -27.1018 0.0
-19.3253 -20.2354 0.0
-19.7418 -19.8897 0.0
-20.4174 -19.845 0.0
-22.4377 -22.4507 0.0
-23.2665 -23.5778 0.0
-20.7933 53.9453 0.0
-24.4493 54.3687 0.0
-26.1879 50.9661 0.0
-22.032 49.5185 0.0
-7.0549 26.9444 0.0
-6.34466 24.0799 0.0
-4.67309 23.2723 0.0
-4.10165 23.2181 0.0
-3.01248 23.0843 0.0
1.51334 26.5077 0.0
-2.84372 -42.6027 0.0
-0.549108 -41.2208 0.0
1.25707 -39.8917 0.0
-3.84552 -35.1212 0.0
-4.48746 -35.3258 0.0
-4.22778 -42.236 0.0
-4.02349 -42.3922 0.0
-36.7574 -17.6917 0.0
-38.7492 -16.6411 0.0
-42.765 -20.4916 0.0
-40.4158 -23.1068 0.0
50.7212 15.8212 0.0
50.2436 15.9633 0.0
46.1871 9.87926 0.0
48.2607 7.22572 0.0
49.4024 8.1476 0.0
26.3774 19.2668 0.0
27.5232 18.4311 0.0
32.7405 21.0927 0.0
30.5355 24.8485 0.0
25.0072 23.4648 0.0
24.0996 23.1769 0.0
-18.4623 -50.931 0.0
-16.9387 -52.5614 0.0
-15.8028 -53.3049 0.0
-8.11924 -53.2085 0.0
-7.95002 -52.7542 0.0
-8.2308 -52.1993 0.0
-9.25715 -51.5052 0.0
-12.4224 -49.373 0.0
-18.0248 -49.8691 0.0
-22.0135 -44.6572 0.0
-24.0502 -44.1992 0.0
-25.834 -48.0913 0.0
-24.9115 -49.0946 0.0
-22.0257 -51.1617 0.0
-19.3554 -50.5699 0.0
-18.9179 -49.508 0.0
-19.4441 -48.3298 0.0
3.44456 52.7307 0.0
6.78682 55.6649 0.0
6.0842 56.4732 0.0
1.37966 56.8159 0.0
-0.707713 56.0029 0.0
-2.63807 54.29 0.0
17.4663 -39.2937 0.0
12.7089 -41.9376 0.0
12.1156 -42.4693 0.0
14.1206 -47.1648 0.0
15.5162 -47.0429 0.0
-14.3587 -44.1101 0.0
-11.9697 -46.1356 0.0
-8.57086 -42.7732 0.0
-8.25747 -42.3208 0.0
-9.32261 -41.1799 0.0
-12.4106 -39.5799 0.0
-32.749 34.9783 0.0
-29.0897 34.4632 0.0
-29.1384 38.3833 0.0
-29.8473 40.8089 0.0
-31.9871 40.3748 0.0
19.6705 25.4605 0.0
19.6008 26.5584 0.0
14.0818 29.7394 0.0
13.3102 29.4523 0.0
9.81162 25.0027 0.0
9.95305 24.8312 0.0
15.1001 25.1677 0.0
-8.81412 40.8493 0.0
-7.24183 40.8655 0.0
-3.53076 43.2871 0.0
-3.52732 43.8836 0.0
-9.32663 45.2523 0.0
53.9929 16.9702 0.0
54.9241 14.9723 0.0
59.1728 15.9446 0.0
59.0118 18.2398 0.0
57.9517 19.8306 0.0
55.0299 20.0576 0.0
54.8465 19.7833 0.0
18.5722 8.4716 0.0
20.5962 4.94811 0.0
24.6311 8.73266 0.0
24.392 10.3272 0.0
-40.8986 -5.01879 0.0
-40.6308 -5.68307 0.0
-40.2322 -6.20296 0.0
-32.5299 -4.37535 0.0
-32.8867 -1.74135 0.0
-35.2782 -0.315994 0.0
-38.0548 -1.37321 0.0
-39.73 -3.41769 0.0
4.72696 -35.7584 0.0
5.12353 -35.3721 0.0
3.76603 -30.4854 0.0
-0.397928 -31.8201 0.0
-1.13766 -32.8493 0.0
-1.15358 -32.9986 0.0
-11.2863 30.6176 0.0
-11.1092 29.7329 0.0
-3.36288 34.6111 0.0
-3.04553 35.1528 0.0
-5.78187 36.0181 0.0
-10.9253 32.7594 0.0
-16.6456 14.8731 0.0
-17.8226 17.2962 0.0
-18.3309 18.1868 0.0
-19.3178 18.0687 0.0
-20.76 16.736 0.0
-21.8761 13.5904 0.0
-21.0011 11.7305 0.0
-15.914 53.3118 0.0
-20.3534 53.904 0.0
-21.5922 49.4772 0.0
-20.8828 49.1773 0.0
-16.8517 50.6437 0.0
13.9024 8.2538 0.0
16.0346 10.7758 0.0
14.1607 12.8429 0.0
13.6911 13.2988 0.0
8.41383 15.2421 0.0
7.79048 13.4227 0.0
-6.10601 62.5423 0.0
-6.42168 62.3983 0.0
-7.80879 57.5479 0.0
-8.07388 55.9046 0.0
-5.97592 54.6413 0.0
-5.27563 54.5365 0.0
-3.83293 54.3133 0.0
-3.38351 54.5552 0.0
-1.45315 56.268 0.0
10.4793 -2.71011 0.0
5.94855 -1.34418 0.0
4.93413 -5.08982 0.0
4.76904 -7.17607 0.0
15.6943 0.778182 0.0
14.0791 -2.07437 0.0
19.5032 -5.5173 0.0
21.9885 -2.22317 0.0
20.8522 -0.756548 0.0
19.4613 0.580814 0.0
17.4643 0.696404 0.0
19.2197 -9.63224 0.0
21.4333 -9.15246 0.0
22.0249 -8.9195 0.0
24.7731 -2.45704 0.0
24.4853 -2.27839 0.0
22.3432 -2.63236 0.0
19.8578 -5.92649 0.0
19.6636 -6.554 0.0
18.8271 -9.18076 0.0
20.9805 33.8404 0.0
22.9446 33.3005 0.0
23.3583 35.1225 0.0
23.4231 36.0179 0.0
23.107 37.016 0.0
21.1103 38.7637 0.0
15.6188 39.7384 0.0
14.6523 38.9241 0.0
12.748 -41.3846 0.0
17.5054 -38.7407 0.0
18.4068 -37.9869 0.0
16.4198 -34.4514 0.0
13.113 -36.3453 0.0
-8.30337 8.25725 0.0
-7.32641 5.71871 0.0
0.225673 11.3077 0.0
-1.93066 13.296 0.0
-2.95292 13.6324 0.0
-4.64745 13.0088 0.0
36.5545 39.6782 0.0
33.9003 35.9296 0.0
39.5336 34.4242 0.0
39.062 38.2344 0.0
37.7163 39.1813 0.0
-19.3344 -2.22145 0.0
-19.104 -1.70858 0.0
-19.7276 -0.253398 0.0
-22.3035 2.83912 0.0
-26.9136 1.18388 0.0
-27.4542 0.210798 0.0
-25.9806 -1.33242 0.0
-3.1861 2.61393 0.0
-4.45101 2.55923 0.0
-5.41386 -3.76802 0.0
-1.89504 -4.02224 0.0
-0.920365 -2.14534 0.0
-0.41125 -0.519191 0.0
-2.20842 2.0566 0.0
16.5868 10.1306 0.0
16.4088 10.1264 0.0
14.2767 7.60446 0.0
13.8577 6.66627 0.0
15.2148 2.15048 0.0
15.4556 1.51876 0.0
17.2256 1.43698 0.0
38.154 46.6571 0.0
36.1146 49.23 0.0
35.4145 49.3246 0.0
35.0998 48.6434 0.0
35.0839 41.9813 0.0
36.492 40.4565 0.0
37.6538 39.9596 0.0
45.4331 -30.9257 0.0
44.9362 -31.5873 0.0
44.4944 -38.8055 0.0
49.411 -31.1618 0.0
49.2528 -29.8516 0.0
48.67 -29.8918 0.0
29.2301 43.0153 0.0
28.2264 44.405 0.0
22.1924 40.6163 0.0
21.7841 39.8147 0.0
21.6961 39.1374 0.0
23.6927 37.3898 0.0
27.513 38.8731 0.0
27.9385 39.0437 0.0
-11.9423 28.0602 0.0
-14.9878 25.7124 0.0
-14.5969 22.8761 0.0
-11.6688 21.9118 0.0
-10.7405 22.3997 0.0
26.0021 -2.14598 0.0
28.2394 -4.50857 0.0
31.8103 -3.91905 0.0
32.2023 -3.81415 0.0
32.6195 2.28354 0.0
7.8663 -44.9422 0.0
5.23104 -51.3256 0.0
5.61755 -51.6275 0.0
10.9934 -50.0684 0.0
11.2027 -49.7726 0.0
-6.89991 40.6194 0.0
-5.82658 38.349 0.0
0.470024 40.2562 0.0
0.43382 40.5663 0.0
-3.18883 43.041 0.0
26.4511 48.307 0.0
28.4481 46.0637 0.0
34.4563 49.0923 0.0
34.7709 49.7736 0.0
29.5729 52.1047 0.0
26.5344 49.6323 0.0
-35.0339 -35.2086 0.0
-28.5143 -32.8972 0.0
-28.5117 -31.2979 0.0
-30.3945 -28.8879 0.0
-33.5565 -29.2359 0.0
1.51267 40.394 0.0
1.54887 40.084 0.0
1.5977 39.9503 0.0
10.0177 35.9036 0.0
10.853 35.9067 0.0
12.1736 38.7063 0.0
11.3161 39.2158 0.0
3.70267 41.5761 0.0
[...]
<CellData Scalars="cell variable 4" Vectors="cell vector">
<DataArray type="Float64" NumberOfComponents="3" Name="cell vector" format="ascii">
0 0 0
0 0 0
0 0 0
0 0 0
0 0 0
0 0 0
0 0 0
0 0 0
0 0 0
0 0 0
0 0 0
0 0 0
0 0 0
0 0 0
0 0 0
0 0 0
0 0 0
0 0 0
0 0 0
0 0 0
0 0 0
0 0 0
0 0 0
0 0 0
0 0 0
0 0 0
0 0 0
0 0 0
0 0 0
0 0 0
0 0 0
0 0 0
0 0 0
0 0 0
0 0 0
0 0 0
0 0 0
0 0 0
0 0 0
0 0 0
0 0 0
0 0 0
0 0 0
0 0 0
0 0 0
0 0 0
0 0 0
0 0 0
0 0 0
0 0 0
0 0 0
0 0 0
0 0 0
0 0 0
0 0 0
0 0 0
0 0 0
0 0 0
0 0 0
0 0 0
0 0 0
0 0 0
0 0 0
0 0 0
0 0 0
0 0 0
0 0 0
0 0 0
0 0 0
0 0 0
0 0 0
0 0 0
0 0 0
0 0 0
0 0 0
0 0 0
0 0 0
0 0 0
0 0 0
0 0 0
0 0 0
0 0 0
0 0 0
0 0 0
0 0 0
0 0 0
0 0 0
0 0 0
0 0 0
0 0 0
0 0 0
0 0 0
0 0 0
0 0 0
0 0 0
0 0 0
0 0 0
0 0 0
0 0 0
0 0 0
0 0 0
0 0 0
0 0 0
0 0 0
0 0 0
0 0 0
0 0 0
0 0 0
0 0 0
0 0 0
0 0 0
0 0 0
0 0 0
0 0 0
0 0 0
0 0 0
0 0 0
0 0 0
0 0 0
0 0 0
0 0 0
0 0 0
0 0 0
0 0 0
0 0 0
0 0 0
0 0 0
0 0 0
0 0 0
0 0 0
0 0 0
0 0 0
0 0 0
0 0 0
0 0 0
0 0 0
0 0 0
0 0 0
0 0 0
0 0 0
0 0 0
0 0 0
0 0 0
0 0 0
0 0 0
0 0 0
0 0 0
0 0 0
0 0 0
0 0 0
0 0 0
0 0 0
0 0 0
0 0 0
0 0 0
0 0 0
0 0 0
0 0 0
0 0 0
0 0 0
0 0 0
0 0 0
0 0 0
0 0 0
0 0 0
0 0 0
0 0 0
0 0 0
0 0 0
0 0 0
0 0 0
0 0 0
0 0 0
0 0 0
0 0 0
0 0 0
0 0 0
0 0 0
0 0 0
0 0 0
0 0 0
0 0 0
0 0 0
0 0 0
0 0 0
0 0 0
0 0 0
0 0 0
0 0 0
0 0 0
0 0 0
0 0 0
0 0 0
0 0 0
0 0 0
0 0 0
0 0 0
0 0 0
0 0 0
0 0 0
0 0 0
0 0 0
0 0 0
0 0 0
0 0 0
0 0 0
0 0 0
0 0 0
0 0 0
0 0 0
0 0 0
0 0 0
0 0 0
0 0 0
0 0 0
0 0 0
0 0 0
0 0 0
0 0 0
0 0 0
0 0 0
0 0 0
0 0 0
0 0 0
0 0 0
0 0 0
0 0 0
0 0 0
0 0 0
0 0 0
0 0 0
0 0 0
0 0 0
0 0 0
0 0 0
0 0 0
0 0 0
0 0 0
0 0 0
0 0 0
0 0 0
0 0 0
0 0 0
0 0 0
0 0 0
0 0 0
0 0 0
0 0 0
0 0 0
0 0 0
0 0 0
0 0 0
0 0 0
0 0 0
0 0 0
0 0 0
0 0 0
0 0 0
0 0 0
0 0 0
0 0 0
0 0 0
0 0 0
0 0 0
0 0 0
0 0 0
0 0 0
0 0 0
0 0 0
0 0 0
0 0 0
0 0 0
0 0 0
0 0 0
0 0 0
0 0 0
0 0 0
0 0 0
0 0 0
0 0 0
0 0 0
0 0 0
0 0 0
0 0 0
0 0 0
0 0 0
0 0 0
0 0 0
0 0 0
0 0 0
0 0 0
0 0 0
0 0 0
0 0 0
0 0 0
0 0 0
0 0 0
0 0 0
0 0 0
0 0 0
0 0 0
0 0 0
0 0 0
0 0 0
0 0 0
0 0 0
0 0 0
0 0 0
0 0 0
0 0 0
0 0 0
0 0 0
0 0 0
0 0 0
0 0 0
0 0 0
0 0 0
0 0 0
0 0 0
0 0 0
0 0 0
0 0 0
0 0 0
0 0 0
0 0 0
0 0 0
0 0 0
0 0 0
0 0 0
0 0 0
0 0 0
0 0 0
0 0 0
0 0 0
0 0 0
0 0 0
0 0 0
0 0 0
0 0 0
0 0 0
0 0 0
0 0 0
0 0 0
0 0 0
0 0 0
0 0 0
0 0 0
0 0 0
0 0 0
0 0 0
0 0 0
0 0 0
0 0 0
0 0 0
0 0 0
0 0 0
0 0 0
0 0 0
0 0 0
0 0 0
0 0 0
0 0 0
0 0 0
0 0 0
0 0 0
0 0 0
0 0 0
0 0 0
0 0 0
0 0 0
0 0 0
0 0 0
0 0 0
0 0 0
0 0 0
0 0 0
0 0 0
0 0 0
0 0 0
0 0 0
0 0 0
0 0 0
0 0 0
0 0 0
0 0 0
0 0 0
0 0 0
0 0 0
0 0 0
0 0 0
0 0 0
0 0 0
0 0 0
0 0 0
0 0 0
0 0 0
0 0 0
0 0 0
0 0 0
0 0 0
0 0 0
0 0 0
0 0 0
0 0 0
0 0 0
0 0 0
0 0 0
0 0 0
</DataArray>
<DataArray type="Float64" Name="cell vector length" format="ascii">
0 0 0 0 0 0 0 0 0 0 0 0 0 0 0 0 0 0 0 0 0 0 0 0 0 0 0 0 0 0 0 0 0 0 0 0 0 0 0 0 0 0 0 0 0 0 0 0 0 0 0 0 0 0 0 0 0 0 0 0 0 0 0 0 0 0 0 0 0 0 0 0 0 0 0 0 0 0 0 0 0 0 0 0 0 0 0 0 0 0 0 0 0 0 0 0 0 0 0 0 0 0 0 0 0 0 0 0 0 0 0 0 0 0 0 0 0 0 0 0 0 0 0 0 0 0 0 0 0 0 0 0 0 0 0 0 0 0 0 0 0 0 0 0 0 0 0 0 0 0 0 0 0 0 0 0 0 0 0 0 0 0 0 0 0 0 0 0 0 0 0 0 0 0 0 0 0 0 0 0 0 0 0 0 0 0 0 0 0 0 0 0 0 0 0 0 0 0 0 0 0 0 0 0 0 0 0 0 0 0 0 0 0 0 0 0 0 0 0 0 0 0 0 0 0 0 0 0 0 0 0 0 0 0 0 0 0 0 0 0 0 0 0 0 0 0 0 0 0 0 0 0 0 0 0 0 0 0 0 0 0 0 0 0 0 0 0 0 0 0 0 0 0 0 0 0 0 0 0 0 0 0 0 0 0 0 0 0 0 0 0 0 0 0 0 0 0 0 0 0 0 0 0 0 0 0 0 0 0 0 0 0 0 0 0 0 0 0 0 0 0 0 0 0 0 0 0 0 0 0 0 0 0 0 0 0 0 0 0 0 0 0 0 0 0 0 0 0 0 0 0 0 0 0 0 0 0 0 0 0 0 0 0 0 0 0 0 0 0 0 0 0 0 0 0 0 0 0 0 0 0 0 0 0 0 0 0 0 0 0 0 0 0 0 0 0 0 0 0 0 0 0 0 0 0 0 0 0 
</DataArray>
<DataArray type="Float64" Name="cell variable 4" format="ascii">
0.316217 0.000510187 6.16323e-05 3.38072e-08 0.249242 0.0032488 1.23542e-08 0.94865 0.000319359 0.000137838 0.23011 0.479217 5.48914e-07 1.04461 1.14453e-06 0.000586701 0.334198 4.61276e-06 0.573608 0.161465 1.34433e-07 0.99432 0.511974 0.511974 2.10901e-08 0.495708 0.393381 1.14453e-06 0.0824302 0.163146 0.332003 0.626025 0.980966 3.42138e-05 0.437452 1.19294e-07 0.36504 0.184973 0.00760007 4.69927e-06 0.252014 1.1995e-07 2.42345e-06 5.96913e-06 0.000160982 0.000319359 0.000137838 0.434405 0.000705084 1.86103e-08 0.848855 0.23011 0.442722 0.33356 0.673042 1.19294e-07 1.06245 2.68958e-08 1.11547 0.912892 0.573608 0.161465 0.187543 1.07467 1.55471e-05 0.542818 1.12037 0.848855 1.10621e-08 1.97283e-08 4.18495e-05 0.503886 0.45141 0.000237451 0.0976075 7.55742e-08 0.000116047 0.0505895 5.96913e-06 1.61534e-05 5.26566e-05 0.00103121 5.60239e-07 0.0032488 0.118662 7.29789e-07 0.0824302 1.10185 1.14226 0.371127 0.184973 0.708918 5.26566e-05 0.000160982 4.42555e-05 0.00273317 0.118662 1.1995e-07 1.38398e-06 6.13175e-07 0.503886 7.9236e-08 1.68594e-06 0.313432 0.631062 0.919422 0.479217 5.76039e-06 0.434405 0.912892 0.542818 0.00370628 0.000157331 0.673042 3.49399e-07 8.33062e-06 2.42345e-06 6.16323e-05 1.6923e-08 0.789941 0.00403603 0.153908 0.399988 4.46645e-09 0.393381 0.000425284 0.179448 0.573608 0.99432 0.000705084 0.514292 4.42555e-05 5.41779e-08 0.000705084 0.66381 4.18495e-05 1.04772e-07 4.61276e-06 2.10901e-08 0.0505895 2.34778e-08 1.00681 7.58754e-07 0.393247 0.187543 1.61534e-05 2.88095e-08 6.97512e-07 0.32239 8.68069e-05 0.0773391 1.16697e-08 0.00151096 0.919422 1.16697e-08 7.29789e-07 0.23011 0.790107 0.542818 0.000237451 3.42138e-05 0.94865 0.848855 0.136507 1.10621e-08 0.763876 0.657465 1.34433e-07 7.29789e-07 0.36504 0.27464 0.184973 0.00403603 0.371127 2.4788e-08 3.89469e-09 1.00681 4.69927e-06 0.130161 0.0824302 1.12037 0.179448 0.00760007 0.000331293 0.00103121 1.89305e-07 0.657465 1.11547 0.313432 0.136507 1.23799e-05 1.68594e-06 1.07467 5.26566e-05 7.58754e-07 0.000209614 6.13175e-07 0.0773391 1.5044e-05 1.89305e-07 0.790107 2.44056e-08 0.161465 1.55471e-05 0.631062 0.50937 0.45141 3.48316e-07 7.55742e-08 0.442722 0.514292 0.000157331 4.61276e-06 0.495708 0.0773391 0.153908 3.48316e-07 7.58754e-07 1.38398e-06 1.23799e-05 2.5907e-09 0.316217 5.60239e-07 0.00145277 0.000306373 0.8063 0.000331293 0.332003 0.0978407 0.763876 4.42555e-05 0.90618 0.27464 0.187543 0.000510187 0.0646441 3.38072e-08 1.14453e-06 0.00370628 0.631062 7.9236e-08 4.69927e-06 0.343308 0.32239 0.000306373 0.399988 0.90618 0.736473 2.24794e-07 0.0032488 0.00760007 0.393247 9.86599e-09 0.36504 1.60998e-08 1.04772e-07 1.86103e-08 3.09214e-07 0.0097703 7.9236e-08 0.32239 1.09841e-08 0.184059 1.5044e-05 0.000209614 0.27464 0.0978407 0.0505895 0.437452 4.61276e-06 0.000319359 0.789941 0.136507 0.542818 7.29789e-07 0.000586701 0.136507 3.49399e-07 0.184973 3.49399e-07 0.187543 3.42138e-05 0.00370628 0.00103121 0.000116047 0.000157331 0.00760007 0.343308 0.50937 0.0097703 1.14453e-06 0.23011 2.34778e-08 2.34778e-08 3.09214e-07 0.0032488 0.000319359 2.24794e-07 0.66381 0.673042 7.9236e-08 1.1995e-07 1.68594e-06 0.179448 0.0646441 0.118662 0.000160982 0.00145277 0.000510187 1.61534e-05 0.631062 5.41779e-08 6.13175e-07 5.48914e-07 0.912892 0.153908 0.130161 1.11547 0.980966 5.48914e-07 0.0824302 0.32239 0.161465 0.399988 4.69927e-06 0.118662 0.153908 2.10901e-08 0.00103121 0.33356 0.163146 0.000137838 0.708918 5.26566e-05 0.626025 5.96913e-06 6.16323e-05 0.495708 0.36504 1.55471e-05 5.48914e-07 0.249242 0.000425284 3.42138e-05 0.000425284 7.58754e-07 1.97283e-08 0.848855 0.000510187 0.434405 0.657465 0.573608 0.919422 0.442722 0.399988 0.252014 0.000137838 0.8063 1.23542e-08 3.09214e-07 0.000237451 0.343308 6.16323e-05 1.1995e-07 0.919422 0.763876 2.24794e-07 0.313432 0.789941 1.11547 5.76039e-06 0.442722 0.0773391 1.10185 5.96913e-06 0.790107 2.24794e-07 0.184059 0.673042 0.00370628 0.66381 0.000160982 3.49399e-07 0.514292 0.0976075 0.00151096 0.252014 0.249242 1.14226 0.000157331 0.626025 1.04461 0.179448 1.61534e-05 0.334198 8.33062e-06 0.00151096 0.511974 1.06245 6.13175e-07 0.0505895 0.736473 5.76039e-06 5.76039e-06 1.68594e-06 0.657465 1.10185 0.313432 
</DataArray>
<DataArray type="Float64" Name="cell variable 5" format="ascii">
0.0909148 0.999974 1 1 0.138655 0.998946 1 0.0109898 0.99999 0.999998 0.158855 0.0417277 1 0.00908091 1 0.999966 0.082177 1 0.0294962 0.277231 1 0.0100133 0.0367488 0.0367488 1 0.0391044 0.0606986 1 0.595425 0.273099 0.0831765 0.0248813 0.0102849 1 0.0496613 1 0.0698059 0.226167 0.994257 1 0.136034 1 1 1 0.999997 0.99999 0.999998 0.0503251 0.99995 1 0.0136882 0.158855 0.0485429 0.0824658 0.021599 1 0.00878122 1 0.00797274 0.0118572 0.0294962 0.277231 0.221374 0.00858434 1 0.0328244 0.00790366 0.0136882 1 1 1 0.037893 0.0467791 0.999994 0.512105 1 0.999999 0.796223 1 1 1 0.999894 1 0.998946 0.415271 1 0.595425 0.00816951 0.00760594 0.0676886 0.226167 0.0195097 1 0.999997 1 0.999254 0.415271 1 1 1 0.037893 1 1 0.0923878 0.0244954 0.0116913 0.0417277 1 0.0503251 0.0118572 0.0328244 0.998628 0.999998 0.021599 1 1 1 1 1 0.0157727 0.998374 0.296844 0.0588268 1 0.0606986 0.999982 0.236958 0.0294962 0.0100133 0.99995 0.0364304 1 1 0.99995 0.0221905 1 1 1 1 0.796223 1 0.00976872 1 0.0607373 0.221374 1 1 1 0.0877689 0.999999 0.62573 1 0.999772 0.0116913 1 1 0.158855 0.0157662 0.0328244 0.999994 1 0.0109898 0.0136882 0.349234 1 0.016849 0.0226112 1 1 0.0698059 0.117059 0.226167 0.998374 0.0676886 1 1 0.00976872 1 0.371169 0.595425 0.00790366 0.236958 0.994257 0.999989 0.999894 1 0.0226112 0.00797274 0.0923878 0.349234 1 1 0.00858434 1 1 0.999996 1 0.62573 1 1 0.0157662 1 0.277231 1 0.0244954 0.0371116 0.0467791 1 1 0.0485429 0.0364304 0.999998 1 0.0391044 0.62573 0.296844 1 1 1 1 1 0.0909148 1 0.999789 0.999991 0.0151488 0.999989 0.0831765 0.510913 0.016849 1 0.0120314 0.117059 0.221374 0.999974 0.705275 1 1 0.998628 0.0244954 1 1 0.0782104 0.0877689 0.999991 0.0588268 0.0120314 0.0181031 1 0.998946 0.994257 0.0607373 1 0.0698059 1 1 1 1 0.990544 1 0.0877689 1 0.227907 1 0.999996 0.117059 0.510913 0.796223 0.0496613 1 0.99999 0.0157727 0.349234 0.0328244 1 0.999966 0.349234 1 0.226167 1 0.221374 1 0.998628 0.999894 0.999999 0.999998 0.994257 0.0782104 0.0371116 0.990544 1 0.158855 1 1 1 0.998946 0.99999 1 0.0221905 0.021599 1 1 1 0.236958 0.705275 0.415271 0.999997 0.999789 0.999974 1 0.0244954 1 1 1 0.0118572 0.296844 0.371169 0.00797274 0.0102849 1 0.595425 0.0877689 0.277231 0.0588268 1 0.415271 0.296844 1 0.999894 0.0824658 0.273099 0.999998 0.0195097 1 0.0248813 1 1 0.0391044 0.0698059 1 1 0.138655 0.999982 1 0.999982 1 1 0.0136882 0.999974 0.0503251 0.0226112 0.0294962 0.0116913 0.0485429 0.0588268 0.136034 0.999998 0.0151488 1 1 0.999994 0.0782104 1 1 0.0116913 0.016849 1 0.0923878 0.0157727 0.00797274 1 0.0485429 0.62573 0.00816951 1 0.0157662 1 0.227907 0.021599 0.998628 0.0221905 0.999997 1 0.0364304 0.512105 0.999772 0.136034 0.138655 0.00760594 0.999998 0.0248813 0.00908091 0.236958 1 0.082177 1 0.999772 0.0367488 0.00878122 1 0.796223 0.0181031 1 1 1 0.0226112 0.00816951 0.0923878 
</DataArray>
<DataArray type="Float64" Name="cell variable 6" format="ascii">
0.0038835 1.00883 1.00913 1.00917 0.0566856 1.00681 1.00917 1.10661e-05 1.00896 1.00908 0.0671729 0.00051123 1.00917 6.33494e-06 1.00917 1.00878 0.00576492 1.00917 0.000187165 0.298329 1.00917 8.43313e-06 0.00035504 0.00035504 1.00917 0.000410215 0.00151522 1.00917 0.752638 0.294057 0.00364689 0.000115922 9.11938e-06 1.00915 0.000885689 1.00917 0.0019794 0.208208 1.00277 1.00917 0.0441278 1.00917 1.00917 1.00917 1.00907 1.00896 1.00908 0.000857904 1.0087 1.00917 2.09522e-05 0.0671729 0.000858618 0.00403961 7.76673e-05 1.00917 5.74138e-06 1.00917 4.32387e-06 1.38076e-05 0.000187165 0.298329 0.185318 5.3719e-06 1.00916 0.000251962 4.21468e-06 2.09522e-05 1.00917 1.00917 1.00915 0.000380196 0.000696942 1.00902 0.67289 1.00917 1.0091 0.900072 1.00917 1.00916 1.00914 1.00849 1.00917 1.00681 0.533485 1.00917 0.752638 4.64493e-06 3.76475e-06 0.0019189 0.208208 5.81379e-05 1.00914 1.00907 1.00914 1.00716 0.533485 1.00917 1.00917 1.00917 0.000380196 1.00917 1.00917 0.00439847 0.000110922 1.32528e-05 0.00051123 1.00917 0.000857904 1.38076e-05 0.000251962 1.00642 1.00907 7.76673e-05 1.00917 1.00917 1.00917 1.00913 1.00917 3.156e-05 1.00605 0.3398 0.00127682 1.00917 0.00151522 1.00889 0.235078 0.000187165 8.43313e-06 1.0087 0.000349016 1.00914 1.00917 1.0087 8.3838e-05 1.00915 1.00917 1.00917 1.00917 0.900072 1.00917 7.8448e-06 1.00917 0.00202135 0.185318 1.00916 1.00917 1.00917 0.00628005 1.00912 0.780596 1.00917 1.00816 1.32528e-05 1.00917 1.00917 0.0671729 3.15261e-05 0.000251962 1.00902 1.00915 1.10661e-05 2.09522e-05 0.432355 1.00917 3.81646e-05 8.84138e-05 1.00917 1.00917 0.0019794 0.02163 0.208208 1.00605 0.0019189 1.00917 1.00917 7.8448e-06 1.00917 0.477444 0.752638 4.21468e-06 0.235078 1.00277 1.00895 1.00849 1.00917 8.84138e-05 4.32387e-06 0.00439847 0.432355 1.00917 1.00917 5.3719e-06 1.00914 1.00917 1.00904 1.00917 0.780596 1.00916 1.00917 3.15261e-05 1.00917 0.298329 1.00916 0.000110922 0.000394946 0.000696942 1.00917 1.00917 0.000858618 0.000349016 1.00907 1.00917 0.000410215 0.780596 0.3398 1.00917 1.00917 1.00917 1.00917 1.00917 0.0038835 1.00917 1.00814 1.00897 2.80904e-05 1.00895 0.00364689 0.674122 3.81646e-05 1.00914 1.4406e-05 0.02163 0.185318 1.00883 0.841792 1.00917 1.00917 1.00642 0.000110922 1.00917 1.00917 0.00310284 0.00628005 1.00897 0.00127682 1.4406e-05 4.69278e-05 1.00917 1.00681 1.00277 0.00202135 1.00917 0.0019794 1.00917 1.00917 1.00917 1.00917 1.00014 1.00917 0.00628005 1.00917 0.235443 1.00916 1.00904 0.02163 0.674122 0.900072 0.000885689 1.00917 1.00896 3.156e-05 0.432355 0.000251962 1.00917 1.00878 0.432355 1.00917 0.208208 1.00917 0.185318 1.00915 1.00642 1.00849 1.0091 1.00907 1.00277 0.00310284 0.000394946 1.00014 1.00917 0.0671729 1.00917 1.00917 1.00917 1.00681 1.00896 1.00917 8.3838e-05 7.76673e-05 1.00917 1.00917 1.00917 0.235078 0.841792 0.533485 1.00907 1.00814 1.00883 1.00916 0.000110922 1.00917 1.00917 1.00917 1.38076e-05 0.3398 0.477444 4.32387e-06 9.11938e-06 1.00917 0.752638 0.00628005 0.298329 0.00127682 1.00917 0.533485 0.3398 1.00917 1.00849 0.00403961 0.294057 1.00908 5.81379e-05 1.00914 0.000115922 1.00917 1.00913 0.000410215 0.0019794 1.00916 1.00917 0.0566856 1.00889 1.00915 1.00889 1.00917 1.00917 2.09522e-05 1.00883 0.000857904 8.84138e-05 0.000187165 1.32528e-05 0.000858618 0.00127682 0.0441278 1.00908 2.80904e-05 1.00917 1.00917 1.00902 0.00310284 1.00913 1.00917 1.32528e-05 3.81646e-05 1.00917 0.00439847 3.156e-05 4.32387e-06 1.00917 0.000858618 0.780596 4.64493e-06 1.00917 3.15261e-05 1.00917 0.235443 7.76673e-05 1.00642 8.3838e-05 1.00907 1.00917 0.000349016 0.67289 1.00816 0.0441278 0.0566856 3.76475e-06 1.00907 0.000115922 6.33494e-06 0.235078 1.00916 0.00576492 1.00917 1.00816 0.00035504 5.74138e-06 1.00917 0.900072 4.69278e-05 1.00917 1.00917 1.00917 8.84138e-05 4.64493e-06 0.00439847 
</DataArray>
<DataArray type="Float64" Name="cell variable 7" format="ascii">
0.357275 0.805214 0.804393 0.960394 0.413855 0.731648 0.944982 0.109939 0.786592 0.818915 0.46057 0.24144 0.895885 0.091923 0.908704 0.789622 0.334908 0.89681 0.203114 0.543895 0.953353 0.10127 0.2268 0.2268 0.945385 0.233945 0.290041 0.908704 0.652741 0.531783 0.340125 0.185875 0.103782 0.881455 0.262734 0.924335 0.311423 0.488241 0.695937 0.865788 0.422896 0.91048 0.886845 0.876672 0.804465 0.786592 0.818915 0.264653 0.790771 0.933796 0.129973 0.46057 0.259721 0.337987 0.172124 0.924335 0.0886341 0.95837 0.0788486 0.116913 0.203114 0.543895 0.511928 0.0863829 0.87201 0.214434 0.0779382 0.129973 0.947397 0.947968 0.828165 0.230311 0.255368 0.815305 0.58928 0.926812 0.821805 0.667622 0.876672 0.855098 0.808066 0.74517 0.910934 0.731648 0.633332 0.91184 0.652741 0.0813708 0.0738515 0.306453 0.488241 0.162493 0.808066 0.804465 0.85435 0.786302 0.633332 0.91048 0.900885 0.926956 0.230311 0.937093 0.922196 0.360012 0.184332 0.115625 0.24144 0.912087 0.264653 0.116913 0.214434 0.736426 0.802201 0.172124 0.887905 0.869271 0.886845 0.804393 0.966248 0.142859 0.781706 0.544906 0.285858 0.96428 0.290041 0.777768 0.481302 0.203114 0.10127 0.790771 0.225806 0.85435 0.955764 0.790771 0.174715 0.828165 0.926865 0.89681 0.945385 0.667622 0.922008 0.0989326 0.900971 0.288948 0.511928 0.855098 0.95287 0.921346 0.347352 0.812727 0.646851 0.962378 0.723507 0.115625 0.962378 0.91184 0.46057 0.142821 0.214434 0.815305 0.881455 0.109939 0.129973 0.58017 0.947397 0.148901 0.176526 0.953353 0.91184 0.311423 0.399197 0.488241 0.781706 0.306453 0.95286 0.960718 0.0989326 0.865788 0.557964 0.652741 0.0779382 0.481302 0.695937 0.823381 0.74517 0.938631 0.176526 0.0788486 0.360012 0.58017 0.864126 0.922196 0.0863829 0.808066 0.900971 0.803638 0.926956 0.646851 0.867885 0.938631 0.142821 0.952017 0.543895 0.87201 0.184332 0.227704 0.255368 0.905229 0.926812 0.259721 0.225806 0.802201 0.89681 0.233945 0.646851 0.544906 0.905229 0.900971 0.900885 0.864126 0.967203 0.357275 0.910934 0.822606 0.774006 0.139181 0.823381 0.340125 0.570965 0.148901 0.85435 0.118245 0.399197 0.511928 0.805214 0.663687 0.960394 0.908704 0.736426 0.184332 0.937093 0.865788 0.329428 0.347352 0.774006 0.285858 0.118245 0.15552 0.921969 0.731648 0.695937 0.288948 0.963751 0.311423 0.969235 0.926865 0.933796 0.914119 0.724735 0.937093 0.347352 0.955946 0.426674 0.867885 0.803638 0.399197 0.570965 0.667622 0.262734 0.89681 0.786592 0.142859 0.58017 0.214434 0.91184 0.789622 0.58017 0.887905 0.488241 0.887905 0.511928 0.881455 0.736426 0.74517 0.821805 0.802201 0.695937 0.329428 0.227704 0.724735 0.908704 0.46057 0.922008 0.922008 0.914119 0.731648 0.786592 0.921969 0.174715 0.172124 0.937093 0.91048 0.922196 0.481302 0.663687 0.633332 0.804465 0.822606 0.805214 0.855098 0.184332 0.955764 0.926956 0.895885 0.116913 0.544906 0.557964 0.0788486 0.103782 0.895885 0.652741 0.347352 0.543895 0.285858 0.865788 0.633332 0.544906 0.945385 0.74517 0.337987 0.531783 0.818915 0.162493 0.808066 0.185875 0.876672 0.804393 0.233945 0.311423 0.87201 0.895885 0.413855 0.777768 0.881455 0.777768 0.900971 0.947968 0.129973 0.805214 0.264653 0.176526 0.203114 0.115625 0.259721 0.285858 0.422896 0.818915 0.139181 0.944982 0.914119 0.815305 0.329428 0.804393 0.91048 0.115625 0.148901 0.921969 0.360012 0.142859 0.0788486 0.912087 0.259721 0.646851 0.0813708 0.876672 0.142821 0.921969 0.426674 0.172124 0.736426 0.174715 0.804465 0.887905 0.225806 0.58928 0.723507 0.422896 0.413855 0.0738515 0.802201 0.185875 0.091923 0.481302 0.855098 0.334908 0.869271 0.723507 0.2268 0.0886341 0.926956 0.667622 0.15552 0.912087 0.912087 0.922196 0.176526 0.0813708 0.360012 
</DataArray>
<DataArray type="Float64" Name="cell variable 8" format="ascii">