<VTKFile type="UnstructuredGrid" version="0.1">
<UnstructuredGrid>
<Piece  NumberOfPoints="    3372" NumberOfCells="    2473">
<Points>
<DataArray type="Float64" NumberOfComponents="3" format="ascii">
-28.9832 35.0209 0 
8.86813 8.47295 0 
51.1535 -6.34823 0 
17.9883 -29.1475 0 
-27.745 49.1883 0 
-38.2565 17.5612 0 
8.56863 -43.804 0 
-56.9211 -12.7974 0 
0.00225635 -52.7771 0 
1.47463 -27.5034 0 
-57.6867 15.2661 0 
48.3551 -23.0237 0 
-14.5133 41.7921 0 
49 -30.6075 0 
13.9458 13.7216 0 
-10.8289 -43.1415 0 
-21.1376 18.5725 0 
-51.3592 31.7978 0 
-30.0876 -38.9594 0 
32.1329 -19.4097 0 
-4.20799 28.47 0 
40.8268 -21.6869 0 
27.5231 -0.825798 0 
5.7812 0.585132 0 
1.06424 -31.7662 0 
56.0228 -10.4927 0 
-26.5843 -33.2739 0 
-27.7051 -55.8507 0 
-57.6669 16.0488 0 
-59.3856 -9.82 0 
27.3322 51.2071 0 
45.615 23.374 0 
-22.3697 33.5236 0 
-29.9229 -2.07636 0 
-29.2065 -14.4787 0 
-12.1745 -42.8593 0 
-14.1091 36.4805 0 
-9.29958 51.3439 0 
-6.36405 4.31389 0 
10.9656 -47.8425 0 
40.1699 35.8698 0 
-51.1625 -3.88695 0 
-0.246275 -10.4579 0 
49.9836 16.299 0 
18.1382 49.8304 0 
-28.1229 42.7124 0 
-12.9961 -1.00329 0 
-28.2611 33.9631 0 
5.95875 21.8229 0 
-4.55385 -44.2502 0 
41.4317 -36.2631 0 
-0.821041 -31.9807 0 
-25.902 -9.48976 0 
46.4154 -42.678 0 
-25.9832 -24.6091 0 
-44.9994 7.13344 0 
-10.3807 -53.8209 0 
38.7007 -41.658 0 
14.0316 -27.7718 0 
18.0372 56.0223 0 
-27.2026 33.9269 0 
-35.9769 0.422019 0 
-5.36822 -44.5303 0 
42.5472 -27.2635 0 
51.3237 10.0201 0 
9.50881 59.1414 0 
25.1608 32.0479 0 
-24.5385 -38.7202 0 
24.6821 -18.0734 0 
-33.3677 41.9442 0 
15.1656 -3.99962 0 
-17.8441 38.2643 0 
43.1234 -44.3011 0 
36.1304 -13.6627 0 
18.8404 2.58987 0 
-49.3156 -21.252 0 
25.392 -27.9555 0 
-32.8614 -33.2862 0 
27.0804 -48.5045 0 
-11.7026 51.6306 0 
-35.2562 0.0632203 0 
31.7772 -40.2381 0 
-10.5139 -11.0737 0 
-14.3562 -43.82 0 
55.9632 27.6722 0 
0.230286 27.376 0 
31.6225 11.0732 0 
-1.0546 60.2895 0 
-48.3867 9.35031 0 
-39.2313 -9.9096 0 
2.02703 -50.3954 0 
-29.977 -29.7084 0 
25.0063 33.7365 0 
55.4999 -14.9286 0 
30.8872 -40.9628 0 
24.3025 22.5633 0 
31.6556 -2.40485 0 
-22.7167 42.3736 0 
40.3473 18.0479 0 
12.0721 -37.1087 0 
-44.1888 -36.2304 0 
-53.3261 23.1475 0 
52.5262 13.4605 0 
-16.2403 -4.63525 0 
33.7264 -3.84291 0 
-14.8788 -0.994298 0 
-18.3073 -39.325 0 
32.686 -2.82256 0 
18.3817 -32.6254 0 
-56.7919 9.44065 0 
7.22765 -44.6413 0 
-18.3673 13.1937 0 
-30.2953 -55.2151 0 
26.2403 43.0074 0 
51.2582 -21.1826 0 
38.3334 -43.8008 0 
-33.7056 -30.716 0 
7.70067 -26.1568 0 
-5.52212 -24.2616 0 
41.0599 -5.29828 0 
33.0748 8.06596 0 
7.24239 -0.890067 0 
32.429 -55.8135 0 
-0.394613 13.3712 0 
14.7897 -61.9431 0 
-36.8833 -38.1404 0 
-16.4581 -22.629 0 
46.7163 -42.1937 0 
-46.0278 -16.3256 0 
9.68593 -57.0105 0 
22.6938 -41.4247 0 
-23.8507 -2.04351 0 
-47.3729 -34.5959 0 
-13.4132 -19.4088 0 
40.0076 -23.2007 0 
-50.4777 -18.3452 0 
35.5455 -6.18499 0 
36.6402 -30.5661 0 
-51.5099 -8.62745 0 
-28.4613 48.5784 0 
-57.5324 4.24714 0 
45.322 -20.6887 0 
12.2584 24.8531 0 
-5.99143 17.5549 0 
-35.5503 7.57471 0 
3.54478 34.588 0 
20.7828 42.2692 0 
24.8183 -27.8331 0 
45.695 24.3532 0 
14.168 45.3204 0 
56.9943 -3.44124 0 
43.0488 13.2526 0 
-29.1354 -2.39409 0 
-24.3812 49.6577 0 
30.4298 -35.5461 0 
23.7865 38.8828 0 
9.36903 20.849 0 
20.9232 13.3711 0 
-61.0527 -10.4685 0 
8.64255 38.4884 0 
-24.0846 -4.05332 0 
-14.1219 -15.7649 0 
-35.1033 -18.6065 0 
-48.9533 39.3519 0 
37.988 10.6279 0 
24.1341 -7.95064 0 
26.6654 35.8898 0 
18.4333 -19.5417 0 
-4.14136 56.2516 0 
-18.4508 -27.1923 0 
58.506 21.8461 0 
-16.31 58.5679 0 
-37.3337 15.8267 0 
56.1754 14.1092 0 
6.1672 -9.17159 0 
-31.4121 42.786 0 
-14.8299 27.4905 0 
-29.1146 3.77662 0 
25.5133 31.5553 0 
15.1765 -8.86206 0 
9.68199 56.9917 0 
-44.2825 -21.9899 0 
-49.4416 24.003 0 
-3.4184 -54.8161 0 
-54.6907 25.6349 0 
49.6155 -29.8832 0 
-39.5669 10.9139 0 
11.7494 31.5964 0 
10.7242 -10.4135 0 
-29.7925 -13.6366 0 
52.8732 0.00416578 0 
-57.186 16.3807 0 
-43.2019 15.1691 0 
51.7168 -31.9864 0 
-28.4814 5.75066 0 
32.4991 -19.7486 0 
43.7594 39.7727 0 
-20.4935 11.2055 0 
58.2333 -21.2484 0 
-18.5184 44.4129 0 
48.5528 -27.3755 0 
32.0398 -2.75596 0 
-16.1391 11.9607 0 
-23.6472 49.4248 0 
-13.9837 -34.0864 0 
-1.26261 15.9797 0 
27.1877 -27.0083 0 
-14.9393 38.5709 0 
-2.00668 -5.4856 0 
-39.7619 19.7772 0 
23.6733 -59.7212 0 
55.8452 13.8923 0 
49.0167 38.1089 0 
1.18131 51.3819 0 
6.85556 27.2127 0 
-24.206 -49.7877 0 
-35.0346 30.2881 0 
-4.15442 43.6818 0 
41.1316 -1.18998 0 
-5.16204 28.3763 0 
-14.7864 20.5726 0 
-28.5622 4.14857 0 
-8.87207 40.7926 0 
22.0995 -59.7269 0 
13.0297 26.8508 0 
19.7044 -34.6809 0 
14.3065 -53.8146 0 
-4.18198 55.0337 0 
44.8988 -35.0713 0 
42.2567 -44.6377 0 
-55.6533 -25.7443 0 
17.436 -2.55698 0 
-32.2028 25.0374 0 
-3.03716 -55.4207 0 
-58.2228 -22.1069 0 
21.3944 -41.6932 0 
-51.3391 -13.2336 0 
-9.30752 6.86883 0 
-26.0289 12.1135 0 
-22.2216 -18.1678 0 
-41.1509 -6.30022 0 
-2.0936 22.8279 0 
-30.3524 54.5953 0 
-41.4987 -2.00131 0 
23.7746 -12.012 0 
-34.5752 16.5399 0 
2.00921 13.7261 0 
-5.38398 -23.1376 0 
-10.176 19.5053 0 
13.3225 52.8446 0 
-10.8654 -47.7241 0 
17.952 -21.7944 0 
-38.679 -19.2588 0 
28.4778 -11.4304 0 
7.42614 -21.6365 0 
38.6351 -40.9188 0 
-31.613 -6.90229 0 
10.7674 -32.9199 0 
28.3596 -2.35095 0 
15.6851 -52.9589 0 
-22.4241 -34.4006 0 
-39.1426 -28.6189 0 
-28.0069 17.3083 0 
42.7175 -35.1567 0 
3.31649 -17.5972 0 
48.6807 33.5424 0 
-10.0188 9.46868 0 
0.468682 45.5831 0 
12.9867 -43.2936 0 
29.5524 -14.8638 0 
-13.6116 28.4889 0 
35.9632 48.9992 0 
-25.8869 -40.3744 0 
43.0365 21.7705 0 
17.0792 9.75032 0 
31.499 31.1644 0 
56.9003 17.5391 0 
-26.6877 21.8841 0 
-20.2931 -42.196 0 
-6.36798 -5.13332 0 
10.7868 39.1189 0 
-37.49 0.346782 0 
-11.1894 43.7994 0 
38.6144 34.7703 0 
0.134575 -48.2374 0 
31.6384 37.4491 0 
-57.9674 16.4805 0 
-36.7949 43.01 0 
-48.8358 39.8829 0 
41.7712 6.37853 0 
-32.2651 -13.8381 0 
-5.01098 -26.3365 0 
-3.31341 18.1045 0 
-54.2066 -26.2968 0 
50.5624 6.96045 0 
44.0479 -8.7775 0 
-11.1356 -27.7699 0 
-1.10748 26.509 0 
-59.4631 -19.3913 0 
-5.60525 -29.619 0 
10.4055 46.8256 0 
7.69092 21.0945 0 
55.0481 -14.2846 0 
-7.26622 46.2307 0 
4.09981 43.2815 0 
-48.6537 21.6208 0 
8.30334 32.468 0 
1.6659 14.0123 0 
34.8021 22.9641 0 
22.1891 25.416 0 
-10.9641 -63.9756 0 
26.4062 -52.2754 0 
-44.7803 3.82843 0 
-43.1294 -37.0482 0 
15.2258 -4.88909 0 
35.7557 49.0318 0 
-16.9618 12.4408 0 
-5.62845 -13.5798 0 
-50.35 24.1391 0 
36.0995 -35.2707 0 
24.1939 -22.198 0 
30.1888 -6.63627 0 
-3.99501 41.3889 0 
23.1857 1.60298 0 
46.4514 32.3516 0 
-35.747 34.8698 0 
55.9923 -11.081 0 
6.67839 -21.3734 0 
-38.0947 41.3869 0 
-24.6988 0.23969 0 
16.4284 -11.2337 0 
-36.2584 -30.4929 0 
-38.514 -29.9493 0 
60.8861 8.6536 0 
18.211 25.8345 0 
17.8779 -18.5083 0 
-45.9787 -30.89 0 
-44.7786 28.2477 0 
-41.358 -6.03934 0 
34.4444 -52.9751 0 
-41.4564 26.1507 0 
-29.1754 -27.9042 0 
20.4922 -37.7465 0 
42.0447 6.75089 0 
40.7189 28.9752 0 
-17.6376 53.3822 0 
-1.8961 17.381 0 
-52.6808 -6.69075 0 
-8.98557 5.51248 0 
-18.9117 -47.3861 0 
-29.0983 33.0886 0 
-13.2274 -34.289 0 
-15.1504 5.2845 0 
24.8409 -48.9527 0 
6.50647 -11.3054 0 
-19.121 32.6597 0 
-39.9045 21.5973 0 
37.2553 -30.5773 0 
-44.0855 12.9937 0 
-36.5876 42.5556 0 
48.6814 -25.4235 0 
-8.19138 -43.2311 0 
-41.6465 36.4485 0 
-19.3435 6.27753 0 
-36.0172 -41.989 0 
-44.054 -44.3585 0 
-8.64629 34.3474 0 
41.8446 27.0657 0 
48.2344 17.2628 0 
0.243346 -0.595932 0 
-1.3431 -18.6249 0 
-18.505 -44.8942 0 
-58.3773 -1.5103 0 
19.3937 51.1738 0 
3.02173 -18.2168 0 
-33.2595 -31.594 0 
30.1284 -34.2812 0 
0.283238 -32.1361 0 
-10.5878 10.6996 0 
38.4655 47.8415 0 
-55.6622 7.71962 0 
-24.3717 23.5554 0 
55.7625 5.6587 0 
8.71318 51.744 0 
-14.2765 -50.7894 0 
-26.5194 14.7871 0 
35.173 21.9522 0 
52.5529 20.104 0 
-8.4622 30.059 0 
-26.8732 32.7936 0 
50.004 -13.9829 0 
-5.2973 3.57295 0 
17.9631 -59.635 0 
47.4333 -1.13263 0 
15.466 -7.79824 0 
-34.6071 1.79898 0 
-44.5953 -22.7192 0 
-28.8565 -17.7092 0 
-10.2467 29.1901 0 
39.7779 -39.0243 0 
33.6128 -24.2266 0 
-15.3253 -22.0736 0 
42.6696 -19.8509 0 
-47.5409 15.7125 0 
12.6508 59.0579 0 
-44.9019 0.314127 0 
27.0877 36.0772 0 
-21.2911 11.0339 0 
-5.51424 -36.3303 0 
10.2287 19.2577 0 
6.83979 58.2735 0 
31.9507 23.452 0 
26.1529 16.8115 0 
-59.8066 -2.86124 0 
-32.7378 -46.6288 0 
30.6251 52.7146 0 
-5.86358 0.516874 0 
-0.62706 8.36239 0 
-39.9904 -7.21424 0 
33.6709 -29.6045 0 
30.1709 47.2205 0 
18.1404 31.5636 0 
-37.4302 -30.7294 0 
56.5231 -24.6328 0 
38.9691 16.6868 0 
-57.3847 -13.1698 0 
-35.0472 -22.0986 0 
55.7108 -12.1801 0 
-32.6844 25.9407 0 
6.7683 13.0855 0 
16.1658 -25.728 0 
30.2362 28.5894 0 
-38.3578 12.2879 0 
58.3725 12.5582 0 
-18.8314 -0.870976 0 
-52.2622 -7.84997 0 
-38.6592 -36.3036 0 
5.62349 -6.33926 0 
-18.7605 28.7587 0 
37.1518 0.690629 0 
-10.6561 -16.7662 0 
44.3487 3.99839 0 
23.7763 -48.8018 0 
38.8817 7.34672 0 
-33.6259 30.6239 0 
-22.11 -18.8138 0 
-57.7596 -22.595 0 
-23.3471 -21.3516 0 
-23.3406 48.4799 0 
-43.3939 -37.7885 0 
43.197 -35.2441 0 
42.6494 -5.90605 0 
-19.4794 38.3384 0 
2.02794 33.8063 0 
-11.3901 -42.7836 0 
-32.9729 -53.0138 0 
-34.4629 -48.7172 0 
11.9307 -18.031 0 
-12.0559 57.0063 0 
16.7809 8.84748 0 
-42.547 35.9746 0 
-23.0038 -17.6067 0 
30.7216 37.9547 0 
-20.7609 27.0347 0 
-38.8437 11.9669 0 
10.7903 -20.7926 0 
-32.7151 41.8851 0 
-60.6459 -17.2769 0 
14.8003 -53.7856 0 
47.857 17.8396 0 
-26.5908 -9.7068 0 
6.6802 -45.3112 0 
-33.8598 -52.2721 0 
27.7065 -47.4827 0 
-11.7653 -51.8916 0 
-8.11455 -17.534 0 
-0.522953 -19.2452 0 
34.0142 -23.4698 0 
-3.33285 61.4884 0 
3.44412 20.4149 0 
11.9751 31.2983 0 
-16.379 43.8239 0 
11.8224 -17.5649 0 
-9.00091 -5.31802 0 
9.60024 -42.2603 0 
-6.89241 -4.86314 0 
-12.2092 -38.9602 0 
24.3649 -6.95018 0 
4.45776 -11.8805 0 
-6.80459 -22.3054 0 
19.4374 1.77528 0 
30.858 -36.5252 0 
-3.35643 28.4455 0 
[...]
<CellData Scalars="wall variable 0">
<DataArray type="Float64" Name="wall length" format="ascii">
0.809111 5.99349 1.70397 4.42308 5.24732 0.591833 5.74275 0.929103 5.54727 0.725725 11.1943 2.85235 1.55529 1.79532 5.31786 2.7038 5.6138 2.13016 9.93477 1.82441 0.338505 9.59368 1.07781 1.32699 5.56982 3.64251 2.20369 2.55853 3.73108 2.01597 5.63152 4.26894 5.515 0.716898 2.6864 4.54605 3.40539 0.387665 0.631213 7.12469 2.47658 5.52891 2.94527 4.56118 1.91486 5.25422 2.43332 4.80965 5.26912 0.486319 1.20476 5.19338 0.817608 5.18201 9.80096 2.54215 7.91814 0.251628 9.02834 2.50283 4.17055 1.41585 2.31911 2.37096 0.128251 7.10747 3.04027 1.13918 2.54215 1.28545 3.74071 0.667689 4.61414 0.471687 1.74658 1.12838 3.81739 4.03528 1.50432 6.19338 3.65616 0.409799 2.60624 4.91057 0.800409 0.327255 5.88954 3.2283 1.31839 6.17777 2.60508 0.667689 7.63493 0.723049 5.85976 1.43165 2.48136 2.59359 2.29136 1.11071 7.28674 2.75323 2.97627 5.85 4.19475 4.27563 2.5013 1.21467 0.507983 3.65616 4.44378 0.982994 3.5697 2.4229 1.1723 1.86789 8.57072 2.81185 0.902701 0.366986 3.30487 3.39899 1.42716 5.9283 0.156403 2.22544 5.26978 1.50183 1.25722 9.2228 1.80365 7.26008 0.85892 3.9224 5.9125 2.9473 3.18515 3.85829 0.857762 1.74454 0.738844 7.17224 5.19338 7.38221 1.87194 4.34511 1.56202 2.31206 2.84247 2.56206 5.95033 7.12605 0.889593 6.31311 0.726761 1.3885 2.18377 9.11132 0.503616 0.648253 4.84295 1.62549 4.15277 7.94221 1.01485 5.90468 0.521247 3.15745 2.29182 7.72472 1.05345 8.60092 0.481998 0.59901 2.03604 6.54226 2.31271 0.89029 1.5253 6.30228 2.93671 3.30935 3.73893 4.25569 1.36356 6.43204 2.11488 1.21361 8.58933 1.32701 8.18942 0.35799 3.82642 0.371778 3.27435 2.26698 1.41523 3.75293 4.6209 0.853554 2.69654 0.534039 2.65727 0.420029 1.62549 0.533194 0.832768 3.80823 1.62649 4.17875 7.89043 0.530562 8.3842 6.33781 2.4229 2.1613 1.07701 0.641663 6.43204 5.73023 5.47131 2.10406 9.00239 0.163836 4.56843 3.43158 0.325941 1.50459 2.59936 6.17777 2.89477 1.06553 7.25187 1.15636 3.15745 5.04972 3.10117 7.2405 3.44515 1.85123 3.1642 4.29634 5.97979 4.92092 1.3885 0.968443 8.02872 4.16583 0.148758 10.8745 1.56935 3.84092 7.03245 2.31271 1.04279 4.90386 4.25815 2.5204 2.76119 2.97685 6.21389 0.958846 5.74427 1.64634 8.84505 3.55246 5.36191 0.650351 1.88292 2.2698 1.7445 5.50153 0.560477 10.637 0.700137 0.862709 0.629317 8.22288 1.57304 5.90643 5.00909 0.788127 5.25743 1.3328 1.9039 5.15861 0.717005 6.76395 4.98055 5.05429 2.55882 4.30323 2.47658 0.386535 5.22357 4.53671 2.31172 3.85078 0.194508 1.72674 6.90413 2.12671 3.30935 3.45918 2.83148 8.26227 0.673889 5.70695 4.90824 1.49455 0.185502 4.37628 3.1742 5.56819 3.73818 3.22665 2.59359 1.0976 3.1458 1.22173 1.18273 2.31541 3.88867 2.39372 5.95721 1.61424 6.49807 3.75065 1.85766 4.77007 0.65725 4.62797 4.31332 3.86089 3.40553 0.802738 3.61808 8.27593 0.772278 1.28058 0.189072 1.09785 6.94534 5.33863 4.39984 2.4134 8.22288 5.25914 6.25355 0.994396 2.10066 3.86906 4.44378 5.88954 2.93533 0.73958 2.7114 0.761013 0.761445 3.27497 6.51129 1.49469 2.88936 8.3842 3.61235 4.47981 2.1492 6.97114 1.26927 1.27754 2.16744 6.89245 1.08903 9.93477 0.316298 1.42716 1.4867 3.73081 3.81321 0.250354 8.93264 0.558262 5.5461 0.716898 4.25639 0.703521 1.91842 4.61902 2.62458 6.05063 0.246753 2.002 3.62906 1.31344 1.52339 0.223662 3.86089 0.455095 0.761551 5.43821 0.805268 2.10066 9.94578 1.11071 8.84144 1.8138 1.9039 0.597081 7.48776 0.83438 5.18875 2.54523 4.26614 5.17413 0.868644 5.22333 1.51529 0.387326 5.10971 4.55264 4.54195 3.27882 3.4938 1.25652 6.6417 1.21467 7.51239 3.60363 4.26656 4.81762 2.60857 1.15256 0.380926 1.37348 4.92622 6.43813 1.8138 1.10307 7.62214 0.381265 5.21092 5.15861 0.840245 7.41729 1.18273 3.41043 7.73519 3.01392 1.85766 1.56219 2.06148 2.61942 6.10007 4.46637 4.00064 5.18944 3.30142 2.98026 0.381265 0.174338 4.26656 1.39241 1.30014 2.41586 2.31955 5.60043 2.37096 5.61509 4.2628 4.81448 5.07567 1.11106 2.42461 2.04974 6.44925 0.922861 7.79535 1.84567 2.66308 2.14957 2.9263 1.29541 6.88544 4.99911 4.99198 0.558262 4.26894 0.473503 5.9283 0.316298 1.75606 3.08309 1.61392 5.10537 2.60857 3.05679 4.09708 7.17724 5.00162 0.465132 0.503616 2.81121 3.7543 2.45417 4.79061 1.6341 7.02961 0.890448 0.45847 3.3614 2.01597 1.25519 1.32699 0.405431 6.29522 0.603778 5.33863 0.629317 6.4788 2.59259 3.82642 5.19153 7.85487 0.951733 7.73519 2.18294 3.27882 2.78839 3.63319 0.381153 3.91621 5.03224 4.56843 2.25725 2.08571 2.39836 6.05288 2.78769 3.89944 5.99154 0.650351 8.67598 1.40313 10.0379 0.325941 3.74285 0.978007 0.568176 2.35981 3.90977 3.76302 5.85976 3.01392 1.59088 7.31816 2.07734 4.77007 0.728024 6.90105 2.53152 0.286718 0.717005 5.21092 2.98026 2.65729 0.526561 7.17724 0.464429 4.7663 0.655769 4.42308 1.12838 4.81379 1.49766 1.30203 2.0703 6.73973 0.58378 4.50436 0.830739 3.3836 0.387326 1.71587 7.79535 5.54727 6.50217 6.23028 0.54501 6.6417 2.84651 1.59528 3.47491 0.589002 0.427065 3.84291 4.08287 1.50432 0.629707 5.63736 0.598046 7.74961 3.64251 3.90507 4.472 7.36766 0.895234 7.2405 1.5084 3.1926 4.7663 1.0582 2.78054 6.45618 2.33054 0.507227 0.799642 6.01476 2.37633 1.05441 0.703521 0.880191 5.04009 6.64724 4.8696 6.1623 0.341967 2.78054 0.808539 1.96648 0.823306 0.617284 2.7038 0.74484 5.39119 2.76356 6.88453 5.25743 4.89338 0.484206 2.78872 5.9125 0.461808 0.700137 2.30198 7.80132 0.800409 1.97106 5.25914 2.12605 2.30827 6.53105 5.40089 4.54605 4.34077 0.830739 4.95192 3.85107 2.36057 0.178542 0.344012 6.76408 0.526888 5.94861 0.91756 0.801478 5.89241 3.79775 0.363971 7.91948 0.789454 3.9847 0.643459 2.21723 1.50183 3.20727 8.00128 1.88393 3.60771 2.67336 1.43165 3.76302 3.71659 3.63319 6.23722 4.99198 1.33132 0.26227 2.30827 2.6864 5.5461 4.92723 5.6138 0.617284 6.00317 3.10135 3.78565 0.246753 2.21279 4.07428 0.739304 5.43042 5.64684 1.45115 7.23084 3.90678 2.55735 2.81121 7.94221 0.897292 2.13813 6.02053 0.778956 6.59854 4.34552 0.588259 4.61436 3.55856 1.10257 0.472731 1.18628 6.23577 1.78177 0.70457 0.148758 6.54226 5.42731 1.02099 6.3868 4.59132 1.88152 5.9435 2.08936 6.98657 5.39175 3.88867 2.61709 3.27579 5.95721 1.39645 7.91948 2.11854 6.87993 2.76564 1.10257 2.14272 5.17762 4.20795 5.78012 0.935921 2.0944 3.11615 0.472812 3.2608 6.89245 0.402069 3.54054 7.28488 0.286718 6.62782 0.612537 5.07983 0.786218 3.92603 6.76395 3.27298 0.504365 2.08571 5.62506 4.66599 2.14865 0.588259 3.6513 3.8557 0.499362 7.70511 2.76425 4.35642 0.875875 0.653953 0.781081 2.85648 1.45115 5.16499 0.597081 4.98055 3.92603 1.68658 3.10135 0.711404 3.92678 3.30514 5.67357 2.31779 2.54523 0.605312 3.22427 1.66097 1.49991 0.809335 0.976722 1.07933 0.927309 4.63931 2.06148 5.93733 0.194508 2.55276 2.14708 0.884431 2.31955 2.93393 1.51175 5.18039 1.39251 0.785146 6.4022 2.80654 1.01472 10.6071 3.62043 6.19338 4.08287 0.632883 4.07428 2.50964 0.628712 2.65135 1.13782 1.80694 4.80965 4.70559 3.70368 1.88292 3.74285 3.43158 5.03224 4.76518 4.00194 6.1981 2.28993 1.30203 3.57019 5.42207 2.01177 2.62458 1.04931 2.35802 3.60229 1.99085 6.03772 0.83438 2.98291 2.57434 7.03245 3.61516 1.27202 4.47981 1.58523 0.89029 3.2312 5.97666 2.50159 7.46231 1.76812 5.86704 2.21412 3.30514 2.59866 2.76425 1.40747 9.2228 0.744308 1.56068 7.28488 0.458523 6.92924 0.976722 3.18087 1.62649 7.57669 1.37348 8.43472 3.2457 0.500669 1.92144 4.59536 6.98432 7.0145 1.62429 0.897292 4.15277 0.420029 1.13151 0.420454 2.50159 5.3072 1.26927 2.13016 0.841101 8.18942 3.76285 2.59485 7.10277 0.331067 4.93041 0.555057 0.966532 2.71653 6.7666 3.41166 4.21383 1.82441 1.08903 3.2608 1.56068 5.77302 5.24305 1.1723 6.33781 2.88936 1.62703 1.65073 9.87399 4.2628 0.914015 4.61414 2.60508 2.59936 1.21179 0.461529 0.617256 0.802738 6.99275 1.10829 1.80365 2.78872 5.99535 0.871443 4.25639 7.12469 0.522442 0.559323 4.66149 0.880191 3.3614 4.38555 2.81185 0.473503 5.63152 0.189072 1.25055 5.33896 3.40805 8.26583 1.91486 6.31388 0.532154 3.90678 0.628081 2.78769 2.43976 0.386535 2.55909 6.90413 1.4764 2.9473 1.51638 4.56722 1.28806 6.06275 3.67028 1.24247 6.49807 3.39479 6.52403 0.387214 0.958846 3.48103 2.1492 1.27202 0.709054 8.22033 0.458523 3.54054 9.64369 4.35857 0.73958 3.70745 5.05429 0.97883 5.61581 0.581754 4.86056 4.46637 4.31883 3.42856 1.99085 6.609 2.2698 3.70368 3.91621 0.504365 0.635203 0.514273 7.46555 4.19017 8.60097 1.35786 1.64858 4.01697 7.02224 3.85829 1.44612 2.13431 4.37628 3.20364 5.38892 4.64838 0.778956 5.65795 1.18879 2.11854 0.760286 2.639 3.7543 2.08936 7.8118 0.840245 0.951733 0.747075 0.892809 6.56613 0.889593 0.974274 0.73355 6.50217 0.929103 3.26584 0.899959 8.60092 1.91955 3.9988 2.95399 2.55853 1.3703 0.490967 8.30533 0.338505 5.24305 0.530796 4.76518 1.49766 2.71437 3.57019 1.07234 0.530796 5.77302 0.744308 1.25722 2.21723 1.43831 2.85736 4.00194 0.711404 6.00317 0.823306 4.20962 0.568176 8.01913 2.17439 7.72472 3.18623 2.93683 5.80984 2.71437 4.81379 1.74658 2.70551 5.42207 2.04007 4.16583 1.52746 1.23703 2.13813 1.62429 0.834828 4.25815 1.21179 7.25187 4.26395 2.33082 6.82858 3.55983 1.28806 1.61424 2.07734 0.228827 3.16148 1.01203 7.56713 2.66308 5.6302 1.85123 1.58242 5.42767 0.0136181 7.89043 3.17995 2.01458 2.0872 5.89446 0.122605 3.31303 0.574442 4.06731 2.74004 6.09545 4.39984 0.603778 1.72864 1.52813 3.27625 2.002 3.78565 2.36195 1.39189 8.30533 4.162 4.27563 3.43325 0.185069 4.7859 2.00525 2.57434 2.65139 7.64783 1.0864 8.26227 0.32573 2.45927 0.91756 0.821832 9.02834 4.78129 1.3211 1.15256 5.10537 0.526561 4.50468 1.04931 1.52339 4.44574 5.19153 0.35799 0.841101 1.07781 10.1564 2.66126 5.97009 1.18628 2.90006 4.06731 2.93393 2.41586 0.360594 3.20727 2.0126 0.746625 5.40287 2.86465 6.44925 2.14792 6.51129 0.798887 4.56118 0.753138 0.560477 1.21056 4.66784 6.31388 1.98349 3.45918 2.93671 2.72162 2.5204 0.834828 7.0145 2.37633 0.80161 6.1981 2.85736 10.9085 2.39838 1.01043 0.798887 3.27497 4.68423 0.344012 5.74981 4.02574 1.41523 5.83733 0.65725 0.871443 7.56116 0.635203 3.27298 4.01272 0.605312 5.18875 6.03772 3.67835 6.23354 0.447259 1.497 5.90643 2.21842 1.91337 6.09545 2.36183 0.935921 0.607673 5.61581 0.0136181 7.53578 4.60876 2.33054 3.06899 0.533194 1.51175 5.40287 4.60354 2.13431 3.80295 4.81762 5.60043 0.884431 1.41899 6.55595 0.409799 0.507983 1.10654 1.11086 2.61942 4.63931 1.02918 1.67468 6.36033 0.380926 1.3211 2.58696 1.75589 0.591833 0.842923 3.3229 0.826268 8.43472 3.66146 2.33572 4.43713 3.43949 0.781081 6.69925 5.36301 2.35944 1.64429 5.62506 2.25725 0.163836 0.663747 3.20364 0.185502 1.77701 7.171 1.6928 5.89241 5.75966 0.799642 3.81879 0.43115 6.04688 0.559323 8.05309 0.299567 7.12605 1.37179 2.35202 0.789454 1.39645 2.39372 5.39175 0.534039 3.25025 1.20761 5.75966 0.801478 2.45927 9.14291 6.31311 6.56613 4.35891 9.2562 1.67092 5.42731 2.03604 3.08741 5.99349 0.930211 10.2997 1.49991 5.51562 3.67028 1.14392 1.1014 2.59028 2.5045 5.38892 0.663747 9.00239 6.02053 1.23703 4.76963 5.65795 3.32941 5.97979 2.15826 1.14552 0.85892 4.44043 1.74454 2.0944 2.36183 2.74004 2.90006 0.472731 1.67092 0.809111 5.67693 1.497 0.977464 6.3868 0.281259 5.17806 5.00909 0.504127 2.21374 1.93385 2.30727 1.66948 1.14765 7.04379 1.11898 0.963859 8.89601 0.415223 2.55222 0.499362 1.18825 5.39119 5.4678 4.76787 1.77783 1.29541 4.61902 0.185069 1.08913 7.56713 3.05469 2.37958 4.78629 1.62093 0.414846 1.33132 4.99911 2.13516 2.56206 0.460131 1.04279 10.3669 3.73263 6.66607 0.980013 0.747075 0.381153 3.71659 3.90977 0.641663 0.727272 9.64369 0.402069 2.16744 4.13944 3.2312 0.327393 2.11488 2.68472 1.28545 2.50283 0.821832 5.94861 3.5669 1.39856 5.14646 0.218649 0.598046 6.05462 4.75173 2.49398 0.331067 0.429503 2.245 1.58242 3.44515 3.32941 0.857762 7.02224 3.17425 0.318666 5.33896 2.06802 0.89075 6.52403 0.842923 11.1943 0.958868 3.8323 7.89893 1.18769 4.87391 4.50468 2.65729 1.70397 3.08741 0.59901 3.60006 1.1881 7.33016 1.72864 6.29522 2.0523 7.10747 1.08379 0.75617 1.57786 1.52346 4.8696 7.55439 6.76408 4.68423 0.761445 0.530562 0.43115 8.39414 0.659877 2.236 2.59568 0.321286 4.21383 0.546588 3.60771 0.752431 2.97627 3.11378 6.73219 1.15876 6.97114 3.48103 6.21389 1.41374 3.5491 1.88152 4.7115 5.19067 0.581754 2.89627 0.514273 0.128251 4.81448 0.617256 6.77883 8.41954 1.08379 1.57786 10.977 1.07933 6.92924 0.801943 0.993261 2.04102 6.3632 0.53891 2.33572 1.59169 6.28582 1.78177 2.87423 5.68446 0.629707 4.03528 0.516442 1.67155 2.71653 0.321286 2.31172 4.01092 2.276 3.34959 5.19888 0.726761 9.2562 1.2821 6.59854 2.76564 0.313994 0.968443 1.75606 8.93264 2.27985 0.317636 7.28674 1.86429 2.98512 6.36033 5.07085 2.33082 1.23729 2.98291 5.17413 1.25056 2.01458 2.04265 0.930211 1.16267 2.65139 5.78156 1.21361 0.327393 7.46231 0.420454 4.9861 2.89627 3.42856 3.45208 0.73336 2.01882 7.46555 3.11615 5.67693 5.24732 0.655769 3.1926 0.379068 2.84651 1.25652 3.55754 2.28341 2.22544 8.0151 0.805268 5.88769 6.4788 0.862709 2.12605 3.86906 0.555057 7.02482 1.64858 4.60354 0.746625 5.17885 2.10406 0.588981 3.94918 6.94534 7.58697 1.1014 2.53152 1.74292 2.22147 5.37432 6.62782 0.75617 8.41954 1.17013 1.02918 0.927309 10.977 0.875875 5.83613 5.36301 1.49455 6.53762 0.360594 1.30014 1.8396 4.472 0.814799 3.01226 8.00128 2.5013 4.162 0.490967 3.44127 7.51239 0.727272 5.47131 3.82846 3.47491 2.24165 0.709054 4.93041 2.49398 4.01697 7.02482 4.20962 6.88453 0.999978 3.73263 2.35981 0.583694 5.26912 1.80694 1.16461 4.06375 0.728024 3.30142 0.531191 5.08196 5.89446 6.1426 1.67155 6.60987 3.06576 0.469603 6.7666 0.768759 5.50153 3.1638 4.7859 1.62093 4.90027 2.85648 3.43949 4.10599 3.89944 0.628081 7.23084 2.04265 3.17995 4.17875 3.18087 0.809335 10.2997 0.387665 9.79925 1.0204 4.17055 2.0523 1.96648 3.24109 4.34511 0.975235 2.14272 3.55856 4.99629 0.568671 7.63493 3.74071 2.68472 6.32649 2.51472 5.51562 5.93733 1.56219 3.75065 1.24247 3.81879 0.507227 4.60876 1.24765 1.03098 8.39414 3.60229 2.00525 3.1638 1.7445 6.609 2.29682 1.06136 2.01575 1.65073 1.23149 5.25422 0.583694 5.18944 0.70457 6.28582 4.93712 10.8745 1.41411 2.60624 6.55595 8.85505 0.807879 4.55264 5.81716 2.1613 3.5697 5.80871 5.7143 2.14957 5.42767 2.245 1.84567 1.71587 1.51529 2.1735 3.1642 5.6302 6.32649 3.5669 0.526888 4.71868 1.34248 0.869495 6.82858 5.07085 1.67468 1.17013 6.77883 0.461529 4.59132 0.977464 0.447259 4.00464 2.30804 1.06136 1.67799 4.7115 1.72674 5.18039 3.80295 1.44612 3.18515 1.4764 1.09785 8.26583 0.868735 2.59028 7.58697 2.05192 4.70559 2.43332 1.23149 1.62703 1.49469 2.14792 2.04974 2.31911 5.11498 3.04027 0.914015 5.61509 3.92719 3.51208 3.55528 2.59485 4.70636 0.999978 2.76356 1.18825 3.8557 2.97853 6.66607 6.44934 2.76119 2.72162 6.30228 1.86429 5.85 0.752431 1.88393 3.01226 1.75052 3.08309 1.10447 3.26133 5.91036 0.664774 0.593206 9.08616 3.1742 4.64838 2.5045 0.868735 3.40805 0.318666 2.51277 2.21412 3.49574 0.659877 1.03098 4.17086 0.531191 1.3804 5.67357 3.55754 3.4938 2.18294 3.41043 1.22173 5.93486 1.97106 4.91057 1.41411 0.786977 2.276 1.38381 6.25355 1.73522 7.56116 5.99535 0.484206 4.26558 1.2821 4.35891 0.892809 0.980013 2.97853 3.6513 4.34552 4.76963 1.52746 8.02872 0.313994 6.87993 1.18879 0.899959 8.88323 2.58696 4.78129 4.87391 0.481998 0.504127 8.80091 1.0582 0.464429 4.09708 5.41188 2.80654 6.54892 3.22079 4.04851 3.8323 0.769599 4.60739 9.08616 0.585261 5.80984 2.40282 8.57072 1.80219 4.08482 3.67835 0.376651 6.21242 4.75173 2.32364 2.87423 2.59568 6.01476 8.05309 0.522442 0.631213 3.24109 0.808539 0.26227 0.414846 1.18254 3.73893 2.12671 1.0864 0.251628 1.11517 1.89468 6.53105 2.01177 2.70551 0.471687 3.62043 2.21279 6.05063 2.35802 10.1564 9.59368 1.07234 0.859094 2.1485 2.55882 3.70745 2.93533 0.327255 7.80132 2.75814 7.70511 2.55222 1.53117 5.18201 2.29136 3.22665 3.83735 1.91106 1.10307 8.84144 2.36195 5.43042 2.99394 1.21056 1.57304 2.4134 4.13944 1.27754 5.3072 5.97666 4.46436 3.9847 2.35202 1.65181 4.76787 3.73108 2.95399 2.47483 5.90468 3.9367 1.6341 0.801943 7.57669 3.80823 3.09569 5.9452 1.80219 1.86789 9.87399 2.01575 2.30804 3.73662 2.96258 2.66126 0.574442 0.612253 2.39836 4.58989 6.3632 1.18254 10.3669 2.97685 6.44934 1.5253 3.05679 6.43813 0.7745 2.21374 5.41188 1.56202 4.99629 4.61436 2.14865 2.75814 0.817608 0.297098 7.85487 4.44574 1.31344 5.73223 4.67456 2.94825 2.7114 4.35857 0.607673 5.78012 3.84291 6.3044 0.901016 5.56819 0.683463 0.725725 6.23028 0.73355 1.05345 1.58523 3.61235 1.15876 0.825139 1.01472 0.769599 0.958868 3.9367 1.01485 2.17439 0.585261 0.593206 1.72886 7.02961 4.58989 5.99154 4.10599 4.43713 0.53891 5.09948 0.868644 0.807879 0.982994 2.40282 6.51138 1.7533 8.58933 5.78156 4.55471 2.23329 0.281259 1.02099 1.52346 0.993261 5.9452 3.08008 6.1623 2.32364 6.05462 5.63736 5.68446 1.65181 1.37179 5.95033 2.13516 6.88544 1.77783 0.589002 3.82846 5.73023 1.36356 2.63676 8.60097 2.73843 1.11898 1.99936 3.18623 2.29182 1.15636 0.895234 8.80091 3.40539 5.40089 1.89468 2.21237 9.79925 2.20369 7.36766 1.8396 1.39241 3.60363 3.44127 1.3703 1.24371 3.27978 4.0433 2.45417 2.639 7.03934 0.974274 9.11132 1.5668 2.31206 0.299567 6.98657 1.87194 4.1043 7.03934 0.760286 5.17762 0.975235 0.761551 9.87936 0.371778 2.59259 0.297098 1.23641 1.1881 5.60136 3.84092 1.24196 0.673889 2.51277 3.17425 3.39479 3.61516 0.347455 9.94578 0.994396 1.38381 4.01092 4.53671 2.55909 0.901016 3.97177 0.73336 3.28103 3.83735 3.73818 0.788127 5.17806 2.23329 1.47593 4.26558 4.89338 0.97883 5.22357 2.43976 6.05288 0.612253 3.31303 1.91337 4.10069 3.43325 4.19475 0.761013 2.94825 4.20795 3.41166 0.469603 1.31888 5.04009 4.66149 6.04688 0.546588 4.90824 1.75328 6.69925 0.653953 6.53762 2.96258 2.04102 6.23577 5.97009 0.74699 6.51138 0.376651 2.21842 1.3328 0.461808 3.9224 1.14552 4.01272 4.66599 1.64429 2.12479 3.22427 1.05441 10.9085 1.43831 0.643459 4.46436 5.4678 1.91842 4.06375 5.93651 0.904054 1.74292 6.90105 5.73223 3.62906 3.27625 5.54429 5.84248 7.57903 2.06802 1.25055 1.28058 1.7533 5.9435 3.5491 1.35786 2.63676 4.25569 5.04972 0.521247 2.47483 3.9988 4.6105 4.59536 8.36026 1.542 1.93385 0.7745 4.92622 3.81739 6.73973 0.920111 6.60987 0.516442 1.59528 8.0151 0.156403 1.40747 8.22033 2.24165 1.99936 7.04379 1.21765 1.10447 4.60739 2.93683 3.10117 4.6105 1.91955 1.39189 4.10069 0.472812 0.379068 1.5084 0.928629 1.76812 5.16499 5.64684 0.289427 5.14646 0.753138 2.94527 3.94608 0.859094 2.30198 10.637 1.59088 6.10007 1.11086 0.702572 6.07683 3.05331 1.24196 1.56935 4.93712 1.59169 3.66146 1.75328 5.70695 2.65727 9.14291 0.32573 2.83148 1.98349 6.98432 5.43821 5.60136 3.60006 0.405431 5.88769 1.13918 5.11498 1.41585 1.0204 2.21237 1.11517 7.91814 3.40553 0.223662 0.347455 4.56722 4.81588 0.327554 6.99275 1.08913 7.64783 1.16267 1.14392 6.06275 3.55983 2.67336 6.73219 0.721533 0.966532 5.17885 2.0126 2.28341 5.93486 3.1458 3.27579 0.363971 5.26978 1.07701 5.81716 5.10971 3.3836 4.34077 7.55439 0.928629 1.39856 6.21242 2.236 3.49574 5.86704 1.88755 10.6071 0.825139 1.41374 8.84505 5.83733 2.26698 4.59761 4.62797 4.35642 2.59866 1.66097 2.12479 2.35944 5.83613 1.91106 3.28103 3.45208 4.31883 0.174338 7.62214 3.55528 0.94744 1.06025 3.83075 5.80871 0.429503 7.10277 2.15826 4.29634 2.1735 5.22333 5.09948 0.74699 1.25519 5.515 1.61392 1.75052 0.814799 3.90507 5.56982 4.67456 5.54429 1.52813 7.33016 1.23641 0.341967 3.08008 3.09569 0.832768 3.06899 6.45618 4.55471 4.9861 1.13151 1.32701 4.02574 1.73522 1.47593 0.632883 7.74961 0.218649 0.289427 2.55735 0.532154 4.66784 2.99394 0.739304 0.460131 2.84247 1.5668 2.18377 4.92092 2.04007 4.90386 2.61709 2.31541 7.41729 7.8118 2.48136 6.23722 2.78839 4.54195 0.54501 0.683463 1.0976 0.80161 6.64724 1.31888 3.06576 0.920111 2.0703 2.28993 2.87718 4.70636 3.76285 0.721533 3.11378 2.75323 0.317636 1.51638 7.17224 6.43428 4.81588 0.455095 4.31332 4.59761 3.27435 9.87936 4.08482 3.73662 4.00464 6.23354 5.19067 1.67799 2.29682 4.00064 4.86056 0.786977 8.85505 1.41899 2.14708 5.67019 3.34959 3.26584 5.74275 1.75589 8.88323 5.94137 4.43473 0.562124 8.89601 1.10829 0.327554 6.43428 0.738844 4.44043 7.26008 3.92678 8.01913 0.978007 0.723049 7.48776 1.3804 6.1426 2.0872 1.25056 4.26614 2.31779 4.30323 2.1485 3.94608 5.52891 3.85078 5.19888 5.67019 2.55276 0.122605 5.08196 4.17086 1.24765 7.53578 0.648862 3.48319