<VTKFile type="UnstructuredGrid" version="0.1">
<UnstructuredGrid>
<Piece  NumberOfPoints="    3348" NumberOfCells="    2465">
<Points>
<DataArray type="Float64" NumberOfComponents="3" format="ascii">
-44.035 -34.1292 0 
6.54618 7.06643 0 
36.2784 -4.28806 0 
0.946144 -45.3072 0 
-19.4167 34.9457 0 
-48.9006 18.6656 0 
5.46813 -31.6683 0 
15.5626 -58.9315 0 
-38.0468 47.3701 0 
55.3181 -19.8459 0 
-45.9221 10.7103 0 
33.8649 -16.3604 0 
-10.0521 29.5478 0 
4.84342 -46.8736 0 
49.9726 18.4194 0 
-7.70044 -30.208 0 
-1.7646 -62.179 0 
59.8282 5.749 0 
-20.9156 -28.2023 0 
22.4468 -14.3716 0 
17.4527 43.4877 0 
31.72 37.6745 0 
-36.7611 -30.5327 0 
3.95512 0.841876 0 
-27.0344 52.8704 0 
39.9903 -7.22504 0 
-23.8414 -43.6154 0 
-19.9518 -40.0759 0 
-41.1835 11.0447 0 
-46.4614 -9.80264 0 
19.2089 35.6283 0 
32.5662 16.6425 0 
-29.3256 -47.1231 0 
-24.1897 46.1896 0 
-20.9479 -9.88537 0 
-41.2589 -30.9219 0 
-10.496 25.9743 0 
-6.55116 36.9207 0 
25.5939 41.3431 0 
-6.7101 -48.5789 0 
28.8452 25.3098 0 
-16.5262 -58.6698 0 
28.0843 -46.4412 0 
-31.6594 49.1178 0 
12.7317 35.4062 0 
48.7368 -14.9015 0 
-9.33983 -1.07478 0 
-20.0015 24.6736 0 
4.65375 16.0812 0 
-3.83352 -31.3129 0 
30.6507 -25.8877 0 
18.2509 54.4157 0 
-18.0892 -6.90844 0 
33.6872 -30.6831 0 
-18.5288 -17.6033 0 
-32.2385 4.8305 0 
-7.02889 -38.2657 0 
39.9884 39.5227 0 
-5.62283 59.5223 0 
12.6232 39.6597 0 
-19.5031 24.6942 0 
40.602 -28.3254 0 
36.1646 -36.2029 0 
29.5418 -19.1657 0 
-44.6323 24.0152 0 
6.46606 42.3061 0 
18.4829 22.9759 0 
-48.6524 -20.6112 0 
17.8382 -12.708 0 
40.7314 -19.5402 0 
10.9193 -3.01175 0 
-40.0598 -29.477 0 
31.8426 44.7532 0 
-23.2384 53.3216 0 
-13.1411 62.3023 0 
-34.9227 -14.5924 0 
17.6325 -19.6983 0 
-33.0784 34.0821 0 
18.9903 -34.3288 0 
0.669662 57.0833 0 
-53.4039 -5.08548 0 
23.4473 -28.4833 0 
-7.77799 -8.33882 0 
35.6071 50.4289 0 
40.4554 20.4355 0 
44.3282 32.1528 0 
-51.4262 -11.581 0 
-0.845628 43.0863 0 
53.8643 22.0772 0 
-29.9322 44.5233 0 
1.59551 -36.3793 0 
-21.4364 -21.3378 0 
18.4327 24.0389 0 
-51.3221 -26.5182 0 
22.8872 -29.0145 0 
28.6608 -52.0342 0 
22.3655 -1.72943 0 
-15.6792 30.1695 0 
-13.03 55.8773 0 
9.01685 -26.8276 0 
16.4232 50.2844 0 
-38.3995 16.5422 0 
37.5051 9.98965 0 
-48.7235 5.54337 0 
47.5757 -13.8469 0 
-10.5582 -1.16219 0 
-47.4934 -3.65561 0 
23.0464 -2.03641 0 
-57.3352 23.8751 0 
-40.0415 6.564 0 
58.6286 15.7383 0 
-13.2197 9.65139 0 
-21.944 -39.4898 0 
19.3429 30.0741 0 
35.7901 -14.5363 0 
57.5329 3.11282 0 
-24.1484 -21.6563 0 
32.4146 52.9576 0 
37.7253 -40.1727 0 
29.4412 -3.69596 0 
23.9529 6.35981 0 
-7.14416 52.0614 0 
23.2684 -40.9062 0 
31.3565 53.3774 0 
10.412 -45.2023 0 
-31.8084 36.2859 0 
-11.2881 -16.376 0 
33.9942 -30.3958 0 
23.6407 43.5353 0 
7.04634 -39.9661 0 
6.40991 54.7821 0 
-16.7789 -1.89125 0 
-33.9161 -25.2386 0 
-9.90297 -13.4457 0 
51.3537 29.8945 0 
-33.2663 38.4037 0 
25.4533 -4.32162 0 
44.4097 -26.738 0 
-36.8566 -5.78337 0 
-19.8207 34.5034 0 
-14.3627 -59.5357 0 
16.3507 55.8494 0 
-17.789 -52.7474 0 
-4.22453 11.9423 0 
38.6444 35.8707 0 
2.93885 24.6788 0 
14.7367 30.5483 0 
17.3496 -19.4095 0 
32.5508 17.2182 0 
10.1928 32.1379 0 
-51.5843 18.1922 0 
-44.9392 -23.5736 0 
47.7546 25.5953 0 
36.2283 -49.395 0 
1.45051 56.28 0 
12.7657 -48.5503 0 
6.95943 15.444 0 
15.004 9.62034 0 
-43.9862 -8.35201 0 
-2.59742 -55.4597 0 
-62.4919 4.57049 0 
-10.6844 -11.2905 0 
37.2881 46.6127 0 
-35.3042 28.6864 0 
-42.7045 -24.4645 0 
46.7264 -32.0876 0 
19.9527 25.1789 0 
12.7751 -14.0076 0 
-32.9073 -37.5842 0 
-13.2896 -19.5378 0 
42.2379 16.2314 0 
-12.2644 41.9249 0 
-27.1967 11.4895 0 
40.0395 10.6747 0 
11.6506 57.301 0 
-22.4931 30.653 0 
-10.5025 19.7216 0 
-24.471 46.0234 0 
18.623 22.654 0 
10.77 -6.08414 0 
42.8247 31.3143 0 
-31.4471 -15.7286 0 
-35.37 17.0164 0 
-2.6725 -38.8047 0 
-33.4245 38.6428 0 
35.6605 -21.0251 0 
37.5708 -31.0548 0 
8.28757 22.516 0 
-26.9729 37.3411 0 
-21.1313 -9.25992 0 
37.1639 0.496685 0 
53.6828 3.19562 0 
-15.7428 -47.5485 0 
-16.9259 -53.5256 0 
43.1208 29.8698 0 
-62.5433 -0.647789 0 
31.9284 27.7834 0 
-14.5766 8.62961 0 
41.836 -14.9595 0 
-41.0519 33.9368 0 
34.8439 -19.3577 0 
-52.1787 31.294 0 
-11.9419 8.68676 0 
-16.7499 35.152 0 
-9.67579 -23.556 0 
-12.7327 56.0697 0 
19.1453 48.6002 0 
-10.4245 27.409 0 
-1.62097 -4.03846 0 
-28.1229 14.5251 0 
16.8638 -43.3274 0 
39.7946 10.5815 0 
35.5974 27.3966 0 
0.59889 36.7124 0 
-22.778 53.4078 0 
-16.9974 -35.4644 0 
44.9818 -26.5752 0 
53.9842 28.4466 0 
13.1636 48.0906 0 
57.5339 -11.3766 0 
-10.8968 14.63 0 
-19.9883 2.77196 0 
28.5591 -36.4487 0 
-55.6645 -21.6922 0 
9.56618 19.6215 0 
14.0442 -25.335 0 
34.7892 42.7164 0 
-2.85385 39.2515 0 
32.7231 -24.7663 0 
30.4177 -32.3618 0 
-40.3546 -18.5782 0 
12.2382 -1.88723 0 
-49.7276 2.5272 0 
-2.33519 -39.1594 0 
-42.0876 -15.7625 0 
15.2732 -29.519 0 
-36.6715 -8.65446 0 
-7.20979 4.65647 0 
-18.5104 8.51711 0 
-15.6591 -13.0637 0 
22.7037 -41.9596 0 
-6.57174 -48.1319 0 
-22.19 38.9019 0 
-29.3857 -1.40057 0 
16.6934 -8.68439 0 
3.84125 62.971 0 
1.75469 10.2105 0 
-3.49535 -16.3137 0 
-7.17282 13.9819 0 
54.1578 4.3518 0 
52.4946 -4.74507 0 
36.1297 29.9423 0 
-42.0001 -45.702 0 
59.9434 12.5172 0 
5.28069 -15.1033 0 
28.433 -28.7333 0 
-21.6562 -4.95166 0 
7.68647 -23.845 0 
20.3128 -2.23264 0 
11.3785 -37.8184 0 
-15.7121 -25.1635 0 
26.0021 -54.8235 0 
-20.0466 12.0832 0 
31.3231 -25.0897 0 
9.97079 -52.9081 0 
35.0308 24.2398 0 
-55.9213 6.45118 0 
0.620909 32.4787 0 
38.7877 -38.1477 0 
39.0273 24.997 0 
-52.0193 -19.3053 0 
25.394 35.1532 0 
-17.835 -28.8984 0 
-47.2101 -32.7721 0 
8.47567 49.4855 0 
15.6077 -51.2766 0 
-13.3767 55.4463 0 
-18.8875 15.2022 0 
-14.4673 -30.5094 0 
-51.0757 -25.9587 0 
60.2171 -7.62154 0 
-26.5603 -0.108294 0 
-53.2212 -25.9956 0 
27.8146 24.616 0 
19.9909 -56.257 0 
-42.3891 22.2911 0 
-41.5659 11.1777 0 
19.0713 -47.0873 0 
55.2712 -20.6874 0 
29.8687 4.46755 0 
-22.709 -9.04548 0 
-56.7515 -2.71845 0 
-2.60633 12.6287 0 
-39.1696 -18.5621 0 
48.7233 15.4061 0 
31.2253 -6.36355 0 
24.6599 52.9741 0 
-1.65643 19.2462 0 
-43.1845 -13.9385 0 
-3.83464 -21.1492 0 
48.1363 -2.01991 0 
-47.7902 31.9439 0 
39.7066 -9.63483 0 
-4.90955 32.9315 0 
2.988 30.9795 0 
50.2103 28.0164 0 
-30.0226 45.0433 0 
-44.6314 34.5302 0 
24.9327 16.3041 0 
15.6559 18.2896 0 
-60.001 13.5079 0 
18.14 -36.956 0 
-2.90494 49.0512 0 
-30.4723 -26.0843 0 
-53.3892 9.4431 0 
53.5913 -8.79367 0 
6.99958 -56.1552 0 
-15.1018 45.8099 0 
-57.3805 -13.8014 0 
43.1649 -39.321 0 
-42.1715 -45.3272 0 
-11.2538 56.9829 0 
-49.508 29.8929 0 
-34.6349 -41.8577 0 
33.9392 22.6849 0 
-49.3644 -30.1991 0 
39.9952 -7.57037 0 
-40.8725 -41.4709 0 
53.3391 -27.4051 0 
-17.4996 -0.511987 0 
11.7793 -7.52486 0 
-22.5673 38.8578 0 
-27.0346 -21.5001 0 
43.4863 6.02527 0 
53.3012 20.2141 0 
-53.4612 12.9784 0 
-33.482 -22.3235 0 
-31.9381 19.8301 0 
-28.9006 -3.95603 0 
24.6239 -38.3986 0 
-29.9205 18.2329 0 
-42.308 41.4045 0 
14.9342 -27.0925 0 
49.7845 18.149 0 
-34.2289 -33.5936 0 
-12.4304 38.1366 0 
-1.58787 12.3257 0 
-37.4121 -4.62502 0 
-7.09805 3.82819 0 
-13.2872 -33.7239 0 
-20.4293 24.1745 0 
-9.23259 -23.7086 0 
-45.3805 25.1077 0 
-34.8274 -42.83 0 
-41.6824 33.3652 0 
-13.876 23.4745 0 
-28.2754 15.5797 0 
48.5591 34.1451 0 
-56.0325 24.3885 0 
-25.505 30.179 0 
16.9583 -58.5282 0 
-40.3671 44.7419 0 
-29.7207 25.936 0 
-38.2574 37.4179 0 
-25.4093 -29.8159 0 
-32.2066 -32.3911 0 
-7.03773 24.5461 0 
30.2009 18.9167 0 
34.1248 12.1591 0 
-0.183026 -0.44185 0 
-0.229553 -13.3822 0 
-13.1149 -32.1145 0 
-41.3542 -0.55503 0 
13.7156 36.1676 0 
2.26152 -12.8402 0 
-48.8194 -19.7959 0 
21.3017 -24.2979 0 
0.146249 -23.1055 0 
-8.05463 7.19629 0 
-27.0244 -48.9607 0 
-39.5072 5.4088 0 
-17.5018 16.5693 0 
-47.1189 20.9112 0 
-17.4847 -43.8696 0 
-44.2778 23.8488 0 
-6.20001 -61.1223 0 
41.1758 42.1083 0 
-43.1172 -35.797 0 
-6.07024 21.7524 0 
26.689 47.7773 0 
36.0634 -10.2384 0 
-4.36199 2.7705 0 
12.6503 -43.2096 0 
48.6737 -30.4487 0 
47.1457 -31.2572 0 
-24.7828 1.13061 0 
-31.6661 -16.1765 0 
46.9925 38.7168 0 
-54.4554 -9.8136 0 
-3.32472 48.805 0 
24.1168 -17.1354 0 
46.9605 22.9806 0 
29.9015 -13.5956 0 
-14.7225 -48.4231 0 
-36.0517 29.8624 0 
-31.7124 -0.034801 0 
-11.1109 -44.7564 0 
-15.089 8.52858 0 
21.1021 53.9202 0 
7.26998 14.3646 0 
4.71791 41.7654 0 
-52.9162 23.8954 0 
18.4987 11.9757 0 
-42.737 -1.37703 0 
-22.9923 -33.2482 0 
39.9975 -36.0285 0 
11.5058 52.7151 0 
-45.9914 -26.839 0 
-28.3957 -4.87339 0 
23.7484 -20.9581 0 
21.0642 33.4143 0 
42.8328 31.4811 0 
-26.4073 -22.0178 0 
40.5035 -17.3734 0 
26.9963 11.7305 0 
25.8776 40.5814 0 
-44.4719 39.4889 0 
16.3795 43.6241 0 
-23.4216 19.3818 0 
4.91843 9.99196 0 
11.5988 -18.613 0 
32.8155 -44.7799 0 
-27.7765 9.31169 0 
35.553 34.6602 0 
-13.2734 -0.927039 0 
-37.16 -5.24374 0 
-27.296 -25.8204 0 
43.6965 -40.4849 0 
-13.5102 20.6283 0 
-11.92 50.1388 0 
-19.1194 44.335 0 
48.9474 -19.0722 0 
17.0519 -34.2427 0 
27.8856 4.78874 0 
-6.8253 -51.5368 0 
-15.7613 -13.455 0 
-41.8097 -16.1772 0 
-33.2543 -33.2606 0 
-49.654 -13.0706 0 
1.94373 -56.6645 0 
-7.02566 -52.1704 0 
30.3029 -4.45972 0 
-44.3332 15.1929 0 
1.98658 24.0897 0 
-8.03495 -29.9999 0 
11.001 -59.7525 0 
-24.265 -34.7431 0 
-53.274 15.6567 0 
-5.57772 57.8465 0 
12.4993 6.10285 0 
-30.2811 25.5422 0 
-34.155 -34.546 0 
22.6557 27.0322 0 
32.1665 45.4842 0 
5.98931 51.2933 0 
7.61925 -15.2007 0 
-23.1431 30.0287 0 
-44.4355 -12.7167 0 
10.7739 -38.3102 0 
23.6622 -44.9068 0 
-32.8042 -37.4877 0 
4.36697 -32.7812 0 
-24.9333 -37.5375 0 
-20.6589 55.1377 0 
-8.15999 -37.2386 0 
48.0404 -10.2901 0 
0.301797 -13.7703 0 
24.2922 -16.6608 0 
-2.23652 44.3785 0 
46.4574 -12.7762 0 
8.42721 22.3524 0 
-21.3461 -49.5945 0 
8.48837 -12.9354 0 
-6.65037 -4.18965 0 
-22.7523 -44.4702 0 
-5.18 -3.95693 0 
-59.9835 8.50718 0 
17.9556 -5.55706 0 
3.07673 -8.66457 0 
3.48928 47.3322 0 
13.9021 0.915723 0 
-61.7558 -2.63491 0 
-2.83246 20.8584 0 
[...]
<CellData Scalars="wall variable 0">
<DataArray type="Float64" Name="wall length" format="ascii">
3.14242 6.42965 4.32736 1.3102 3.41271 1.00175 4.12498 0.629972 5.56989 2.84096 7.77648 4.21835 4.67418 1.44238 4.61478 3.83715 1.70336 1.58482 1.66171 3.82404 2.87206 5.48599 1.70607 2.71443 1.85659 4.09667 1.06898 1.06302 0.527483 8.12152 4.09667 4.00188 3.07937 6.63231 3.29494 5.41218 3.84824 0.617327 3.98192 5.58486 1.37828 5.16255 5.62824 3.75033 5.2958 3.94896 3.7753 2.06506 0.964006 5.21487 0.557621 4.97033 0.674874 6.82457 1.5187 2.74819 3.99803 0.930055 2.16035 0.840726 7.4916 4.52905 0.930055 3.33836 2.66446 5.67234 2.84077 7.32305 2.15501 4.01415 1.13781 2.8921 2.95403 1.22718 3.56494 3.00186 5.52891 2.54532 5.51167 3.55055 4.25696 1.25585 2.31821 0.99897 5.02609 2.40226 7.14731 1.80184 2.54151 1.4952 1.60183 3.02318 6.81272 3.18194 6.22827 6.45923 1.73899 0.310223 2.73557 4.46154 1.4192 2.79235 7.42518 2.77368 2.3845 1.79272 4.14129 7.22893 1.47388 2.1955 2.61293 7.50703 0.704722 10.2704 1.09994 6.58355 0.353215 3.10193 3.75942 0.84893 1.28683 2.22522 6.07383 3.99008 2.57638 4.46742 4.50923 4.46154 1.68221 7.21865 4.77431 1.82735 1.05098 2.6765 5.69052 0.505005 4.76233 4.20618 4.36372 9.05063 1.57909 5.09875 0.839638 2.55313 1.91687 6.44482 3.94503 0.699789 3.39981 1.70752 2.41223 4.76704 0.365949 3.57307 1.86614 0.436263 4.70127 5.41218 1.41209 0.550256 6.97556 0.629972 3.57094 0.403368 1.3102 4.44897 2.56755 7.13706 2.05884 3.96715 2.12791 0.173585 4.68188 0.913581 4.77937 1.40336 9.58209 1.52256 2.01609 6.69295 2.52812 0.815203 2.5564 2.51323 1.57162 0.902599 1.018 6.92257 2.1955 0.26778 4.72937 1.9647 1.91054 0.224121 1.50406 6.92563 0.412799 0.50785 3.9133 5.68284 3.48589 2.34922 7.74144 3.33139 4.69154 2.46891 1.39887 1.20519 4.77937 8.85076 4.05395 6.98969 0.516967 6.00355 0.180167 0.852065 2.74148 5.02609 6.61853 1.8077 5.48198 1.25585 7.36741 3.47781 4.97764 4.92409 1.17063 4.8656 3.59914 6.28174 3.99008 1.84379 1.12561 7.40457 0.367989 0.490498 4.21974 4.78023 0.930601 1.71073 4.25793 1.18706 3.07833 2.21211 0.930601 1.05066 3.75033 3.84717 0.821165 3.92704 1.79634 2.0827 6.30648 4.58326 0.622458 4.43855 1.09554 8.13107 2.91055 4.77982 1.24785 2.92658 5.07788 0.740246 3.97449 3.31269 2.8874 7.09713 0.856158 5.19005 0.709066 5.36067 0.173585 9.01788 0.197089 7.83155 1.79634 4.31446 0.928196 3.03203 2.22273 3.56329 8.74477 2.20354 3.56678 3.50585 0.995447 3.47788 8.4413 8.6767 1.30929 0.517784 0.481145 7.4916 2.11706 2.12791 2.3892 3.70744 0.116458 5.34011 1.29625 5.10244 1.12239 8.48242 1.03929 5.18981 1.80184 1.19587 2.8523 1.92813 5.78457 2.38006 1.66109 2.2496 0.604483 5.29773 3.90911 1.98828 4.36372 0.510382 3.37586 2.73231 0.895557 4.77431 0.531609 4.95121 2.73303 2.90421 4.9865 1.57162 8.04615 0.334633 4.82952 1.53545 1.94257 1.59189 0.381527 2.0827 7.83155 5.16255 2.39525 0.566222 4.76483 3.66674 3.12405 0.894031 2.66916 6.28131 3.32634 1.55637 1.60135 3.23292 0.458346 6.18959 3.20212 2.80745 0.613698 1.66904 3.32634 2.75981 1.79272 2.36838 0.798395 1.9316 4.39487 1.00546 7.99897 4.58326 0.936365 3.35375 3.30199 5.14784 2.16165 9.20205 2.52812 0.868349 1.40552 5.07237 1.29312 1.00917 4.95168 3.96567 2.96425 2.12188 3.93914 0.428491 1.27506 3.45452 4.36132 0.907182 1.77526 6.62887 1.0664 6.36159 2.95403 1.81179 1.4372 2.73715 0.968992 4.55177 4.54571 3.89927 3.23209 2.98524 0.606583 0.695659 6.28357 1.63449 1.00917 7.03391 0.64751 7.34686 8.55542 1.08711 0.510207 2.93164 1.35474 6.97291 0.79198 0.591168 1.9316 3.97241 3.73028 1.00992 2.41223 5.16248 5.18064 1.08423 3.06134 2.80745 3.36208 5.25682 7.60933 6.21539 0.349224 4.38148 0.287911 6.11459 3.70759 2.38006 2.22733 3.20127 0.36125 3.50664 3.52521 2.3315 6.52149 0.695659 4.90702 3.52297 1.04622 6.46554 1.3256 2.38623 2.62525 6.06431 0.36125 8.91755 0.606183 2.57143 0.831608 7.38482 2.09811 4.75476 6.30648 0.381527 3.81049 1.52985 0.53396 1.63482 4.70569 0.573243 3.86929 0.947324 7.93575 2.87849 7.72116 0.407216 0.852065 8.23663 0.490498 1.6565 2.21335 0.899803 2.96425 0.558 2.78281 5.53318 2.12188 0.899803 2.4573 1.7256 3.7007 1.16543 6.29541 1.06898 6.63231 0.641002 0.243105 2.18479 2.17065 2.56219 2.2202 1.92464 4.19825 4.2407 7.04161 2.04781 2.15501 0.239524 0.672243 3.47788 3.61174 7.38565 1.85659 5.24175 2.55146 0.835632 1.63482 0.267851 4.00188 4.76483 8.72043 0.778433 5.72796 1.7482 1.89695 2.5564 8.06317 0.968992 9.15251 0.193437 7.4856 0.827303 4.00017 2.37095 4.55594 2.80237 6.61441 1.24785 2.42009 6.00355 1.66329 4.35999 1.94275 3.17799 5.81144 2.49595 2.90536 1.85965 2.20354 0.249984 8.6854 5.25771 4.54414 0.979384 6.3976 6.46554 1.18462 8.31153 1.6623 3.46803 0.463992 3.50664 2.09811 3.82086 4.19536 0.53396 3.03166 3.21605 0.399287 3.14242 6.93077 4.74545 3.71295 4.89378 1.15781 2.25813 0.530556 2.40682 7.40457 3.12503 3.73444 3.66421 0.374417 6.94499 2.7642 3.55974 4.38148 0.386661 0.349076 9.70286 2.8523 3.38089 2.37095 2.65285 4.00598 2.46891 0.407398 1.18706 3.63292 5.38489 1.03354 6.16617 1.75674 2.39875 0.853523 1.2313 0.520474 3.86929 7.51789 0.51444 8.42858 3.2984 2.65158 4.46683 4.79061 2.08984 0.50785 4.04955 0.343565 5.88782 0.462604 6.5804 1.08798 3.71061 3.97449 3.96989 1.30974 5.67234 0.696842 4.98844 4.79061 0.535567 0.385947 8.85342 3.81049 1.59189 8.32932 0.276432 9.01788 1.52256 0.933313 3.16817 1.87202 4.46742 1.41301 2.39525 1.37828 1.70214 2.47985 2.75981 6.28131 3.66101 1.77526 1.03412 2.56755 2.11706 0.840726 6.25596 0.666997 10.1699 2.21486 6.35231 2.69583 1.23067 4.47706 5.03061 0.445117 2.26414 6.77897 0.84893 6.08296 0.827303 1.58749 2.70173 3.17115 2.83932 0.424425 1.34393 0.593087 2.43201 3.47781 2.19078 2.37158 8.35559 3.43268 6.88632 1.84309 4.61827 2.82094 2.96052 4.47114 3.61732 3.63292 4.25793 2.25925 7.24945 1.20449 4.10249 2.12661 4.30482 3.78381 3.50315 6.96336 1.66109 4.20618 1.55099 7.96571 2.4086 3.43856 3.17799 3.0737 2.4667 3.76969 1.018 3.33477 1.38268 6.22202 0.725822 10.4936 0.525447 2.64113 3.25 6.68331 0.346248 6.74159 1.26639 0.511259 4.44897 4.32736 5.53834 1.95821 3.04353 1.29057 10.1699 0.922731 6.58275 2.42171 0.745776 2.37081 3.97628 1.15781 4.30524 5.21487 4.46055 6.10848 2.2055 4.6756 4.90702 0.606583 1.4757 0.249984 8.74477 1.49906 7.56861 5.27156 4.22023 0.334633 0.197089 2.36538 5.07237 3.17989 6.58355 0.514693 8.72921 3.03166 1.52985 8.85342 6.35231 0.862855 5.53806 1.30882 4.21626 0.865487 0.762243 2.5329 2.10342 4.47114 2.48943 8.31153 3.12719 1.08798 2.88533 3.06178 1.28363 6.81809 1.05648 2.25925 3.32235 1.57472 3.52521 0.463992 8.72921 2.11635 1.06959 7.13386 1.26008 3.23231 2.82961 1.60252 0.364013 0.648079 2.3315 3.07663 5.54696 6.97291 1.37569 7.25335 1.95821 0.45494 3.3896 5.03061 0.557281 1.83582 10.374 0.346486 2.4667 2.6063 5.00194 3.8201 4.95121 3.05579 1.60533 1.73212 1.23067 2.02411 4.55468 6.19425 0.183228 0.901282 2.79919 3.82404 0.762243 3.13119 2.82094 1.61836 2.6765 8.27296 0.809759 9.03304 1.28683 1.34393 8.47359 1.557 0.603589 8.2515 1.78538 0.62086 3.49346 3.7586 1.60533 1.69294 4.60989 5.34454 0.364013 7.80867 0.550256 9.38313 1.29625 1.68306 6.15757 3.30199 0.969048 0.267851 7.93575 8.5415 0.641002 3.07937 3.84917 0.595544 3.1666 3.32753 0.374417 1.50403 4.20011 0.388534 1.44238 1.55711 4.54414 0.539805 1.25791 2.51237 4.24869 1.1676 2.37154 4.24078 2.69443 0.672192 3.61174 1.30929 4.10347 1.16815 0.838875 2.93503 1.00175 2.62245 3.12503 0.349072 4.98267 0.224121 7.3048 2.3892 3.96715 1.76471 1.63291 3.33477 2.55153 2.00695 2.69443 3.43284 5.61963 0.641161 8.18146 0.593087 0.652725 2.88799 4.31567 0.451123 3.88555 3.0947 5.85474 5.23987 2.56054 0.506316 7.21865 3.19284 1.60752 0.704722 2.29452 3.18194 0.666038 0.310223 9.3469 5.10355 2.55153 2.88548 0.666038 0.410655 7.38148 2.74819 0.785413 2.73745 2.40226 2.74148 0.309403 2.75205 1.9624 1.12293 4.61478 0.388534 3.65966 2.84107 3.81639 6.62887 3.66101 2.71816 1.05342 6.85076 3.20979 2.72915 0.312076 6.21539 0.96633 3.76969 0.346486 3.09934 0.798013 2.61293 6.92257 2.10718 5.62824 0.894031 0.737212 3.36607 3.0737 1.94275 3.10998 5.95238 5.22872 2.26391 2.98227 1.91253 5.04157 2.67212 3.95121 1.3256 3.46803 6.34627 7.03391 1.29312 2.78164 0.658863 0.853523 7.55424 0.555709 1.20309 2.56317 1.70835 6.62433 2.97185 0.458346 2.47985 4.8208 5.18261 3.73756 10.2704 1.60752 2.41997 2.16142 2.8874 1.73899 0.258165 1.83582 2.31153 4.46055 0.964006 0.582784 9.3469 1.75674 0.485857 6.72094 0.640758 5.86688 0.705159 5.62978 1.57068 6.75342 0.451123 1.37202 0.964106 4.8656 3.22649 1.00969 2.8655 0.196287 1.68306 5.34011 2.08549 6.98969 2.6063 6.22202 0.834718 6.63205 2.62501 0.375902 0.525447 4.6765 1.57909 4.01456 1.58749 7.4856 4.31446 3.92704 2.93007 4.47439 0.435639 2.55537 2.38001 0.264707 3.33139 3.23665 0.368423 9.81943 0.979676 4.39905 0.656858 2.16165 2.36538 1.09994 9.03304 1.42545 0.595544 4.68408 6.66515 9.47171 3.32235 4.30482 3.93218 1.4952 6.14954 2.35473 4.80476 2.55146 4.80126 2.40761 4.15046 2.5044 4.39905 3.33953 1.22718 6.36159 1.63291 9.7057 0.839638 0.625868 7.72279 0.834718 1.38268 1.2272 7.38696 1.41207 3.52297 4.6756 0.8889 0.829615 1.99519 3.78381 4.76233 2.72654 5.87694 4.24543 5.53318 1.02819 1.53474 3.59914 0.964106 4.82517 2.24697 6.71563 2.64955 3.39981 1.04396 5.18261 4.02234 0.348534 2.73368 3.4993 5.19867 2.9693 1.08423 3.27202 4.56073 2.79553 6.0816 1.81621 1.70607 0.939117 3.36208 3.20212 3.36364 3.33841 1.30169 1.69294 2.46881 0.752321 5.04157 1.29924 3.78462 4.98267 2.49379 8.79926 0.735203 1.04473 6.83336 2.93164 8.06155 0.656858 2.5044 1.0664 8.06317 0.815203 9.20205 3.78821 3.20979 2.94315 7.72116 2.00512 1.84309 3.56495 2.31821 0.416348 8.2515 0.591168 7.30664 2.8064 3.01359 4.39487 0.353949 9.70286 2.82984 3.50315 1.99519 2.20951 1.92464 0.631816 7.34659 1.70336 4.86476 0.822814 2.54511 4.20369 6.61031 3.30302 2.8064 1.90616 3.03556 1.2313 6.62433 3.56342 6.71563 3.16817 4.1384 0.902599 4.9865 5.97762 2.84107 3.91838 4.24869 2.09145 6.68797 1.13703 1.58439 7.22893 2.8299 3.41168 5.19005 1.96656 5.17624 0.51353 3.16074 0.366062 8.42858 4.04955 0.412799 3.65336 3.23231 5.12746 1.57068 7.35038 1.66987 2.36799 1.35716 4.29934 0.613698 7.60933 0.880094 0.765711 1.66987 2.34355 6.05397 2.6619 0.365949 3.29494 0.472108 4.20369 0.888381 5.16226 1.35474 4.24353 6.28357 6.52149 0.648079 3.79263 9.81943 3.17523 4.84241 0.116458 7.89113 2.11635 5.34454 0.312664 2.80237 0.516967 2.08549 1.34947 6.77897 6.25507 4.18851 2.29452 7.50703 0.798013 3.5353 6.22827 1.58324 3.17115 4.23783 1.91687 1.75377 1.93379 6.43635 3.81885 1.84071 2.8623 1.88082 6.58275 1.96753 0.625868 5.09875 4.6765 10.4936 3.86807 5.16226 2.20745 3.07663 1.04622 1.41207 0.45494 5.53834 0.666997 1.73212 3.7586 6.14607 0.349072 6.94499 3.32753 4.35765 0.704606 2.49379 1.51276 8.79926 0.704606 3.35685 0.64751 6.83336 1.70752 2.64955 3.56342 1.70835 4.6659 5.16248 0.399287 2.41978 3.59815 3.4993 2.17238 0.346248 6.42965 3.93914 6.29541 0.130494 0.934005 4.06224 2.78164 2.35473 2.65577 1.54292 1.29924 1.51276 1.04473 1.52891 5.19424 3.828 6.38781 3.49535 0.674874 1.87177 0.702985 3.45452 8.72537 2.83932 1.58324 3.34903 3.36364 1.91253 1.6623 2.48943 2.96052 1.71073 3.7753 1.11112 1.03412 0.907182 5.69881 1.93379 3.19537 7.13706 3.02318 6.30945 0.702985 2.60368 2.64113 0.375902 0.193437 2.54682 1.20519 6.85899 0.353215 3.17989 1.40552 5.71676 0.225403 1.40336 0.934005 1.45343 4.2407 4.0961 2.13902 7.00764 1.61238 6.00529 3.83556 0.56729 9.96456 4.82952 4.22023 1.4282 6.86901 0.622458 5.14784 6.15757 0.196287 3.76677 2.11393 1.56411 9.5983 0.396054 4.73157 6.17154 0.403368 8.58449 0.838875 0.820718 6.93077 3.41271 3.31269 3.71061 3.12719 1.81152 2.21694 0.26778 1.47388 3.73756 0.980737 2.17065 3.17714 3.94503 0.409576 5.51167 0.798395 9.94654 0.558 3.96567 4.86341 3.97241 3.09374 0.343565 5.12746 1.26008 1.54851 1.61238 0.179964 2.56054 0.32696 3.07833 6.16617 0.114809 3.89927 0.754743 2.82886 3.23209 0.114809 1.03354 1.19388 3.32633 4.46683 7.86942 0.611253 2.48432 8.05711 0.709066 3.41168 1.388 0.606183 5.30628 2.66446 3.65335 0.410655 5.85099 0.65771 1.27334 6.19371 0.696842 0.484256 4.10249 0.301013 2.70573 1.13781 2.23273 6.38781 4.38418 1.26639 5.89393 0.348534 0.360414 1.66329 3.74996 1.63572 1.12239 0.179964 9.96456 5.06537 3.00186 0.345015 3.0947 1.81919 5.22872 3.0556 1.60135 8.51422 2.72915 3.78821 2.87849 0.367989 2.40682 10.9735 2.56219 0.980737 2.54532 4.92409 0.218445 8.24709 1.8077 0.828825 2.95064 2.62525 3.17499 0.65771 6.17428 2.46881 7.80867 1.60252 4.44026 1.50406 1.95791 0.613997 3.23665 7.74144 1.69415 9.5983 2.48432 2.17917 2.22733 5.78457 7.16097 0.929059 1.53545 6.86901 0.291939 0.456971 4.73157 3.54453 1.28363 3.17878 3.04353 7.25335 3.60275 3.76202 1.94041 0.876519 4.55468 4.71049 1.50403 3.66421 3.55277 2.31491 0.979384 1.55711 8.11334 4.05395 0.407216 2.94315 6.85076 0.827308 3.76677 2.8655 0.114827 9.60829 1.19388 5.38489 3.61732 2.10342 1.13703 7.2368 1.44313 5.11651 3.17826 2.75205 2.27291 3.57307 2.6619 3.86807 7.38696 2.36799 0.765711 4.65346 0.527483 3.42305 5.79992 0.472108 3.98192 6.45599 2.32256 6.61031 0.79198 5.54696 2.20745 0.888381 1.90616 7.30664 4.29934 3.67773 3.88555 6.75342 1.60183 3.93218 2.12661 0.484256 3.828 6.30945 7.38482 7.81759 0.710053 3.82086 4.44026 2.82961 3.65336 6.92563 0.258165 6.45923 3.5353 3.09934 10.374 0.612846 5.07788 2.20657 3.33841 1.11112 3.94896 5.20136 5.17624 0.848355 10.2885 2.67212 0.752321 1.95791 5.68284 2.21385 6.76324 2.71816 6.25596 2.16035 4.52905 1.30974 2.18733 1.87176 7.38565 0.672192 2.00695 5.10355 0.582784 2.06506 0.416348 7.14731 2.73745 7.26523 1.78538 3.95121 6.76324 0.599356 1.27334 3.17499 2.38623 5.80785 7.09291 1.7256 3.29956 0.312664 4.60989 1.30169 2.20657 2.92658 6.61441 0.642226 1.99896 5.29291 3.7007 7.09291 1.41209 0.511259 4.38418 5.10244 9.38313 1.9647 6.96593 0.85601 0.557281 4.47706 1.34947 3.03486 3.05058 6.51934 1.45985 0.74799 6.66515 1.10557 1.67688 4.31567 5.35039 1.6565 4.24543 1.37202 1.18462 6.06431 2.95064 1.72257 3.43268 3.13119 0.865487 0.903335 0.62086 7.26523 0.785413 1.5187 0.481145 10.009 5.48198 6.17428 5.85099 0.309403 3.27202 5.18064 4.6659 2.56317 3.95215 5.32504 1.00969 2.03831 2.26391 1.81919 1.57348 2.34355 7.35038 4.10347 8.6767 1.32776 0.201852 4.12063 2.94477 3.20077 3.55055 0.409576 4.76704 1.00992 3.0407 1.94041 1.63932 3.65335 3.33836 3.99803 7.38148 0.746377 10.2885 3.13869 8.61895 2.5329 8.27296 1.05098 0.809072 8.61895 1.02836 0.114827 2.69583 4.21626 4.174 1.67996 0.510382 3.8201 2.2202 8.24709 1.97042 2.65871 3.42305 1.06302 1.05066 4.78023 2.10318 2.91055 0.612846 5.2958 1.62667 2.2496 6.96336 2.82984 0.349076 9.27484 3.97628 6.70252 0.604483 1.62667 2.95424 2.25813 2.88548 5.61963 0.771437 1.47794 1.4192 4.50923 0.506316 1.02836 3.13869 0.848355 1.96656 0.51444 3.32633 9.60829 3.912 5.48222 1.84379 2.21211 2.82886 5.96355 8.06155 0.510207 3.81823 6.63205 7.72279 1.96753 0.725822 1.41273 3.63375 3.57094 4.12498 2.93503 8.58449 3.71295 5.07737 2.65577 4.15046 2.0022 2.17845 6.3976 2.31491 3.25024 2.84096 0.437157 4.80476 5.19424 2.21354 4.70569 0.835632 2.72594 8.6854 1.4757 2.98524 6.34627 0.243105 8.5415 0.947324 0.520474 3.03556 2.24697 6.3656 0.535567 5.88782 3.09374 4.05262 1.05342 2.18733 1.81152 6.81809 3.60275 1.37569 0.85601 4.00226 2.51237 5.88677 2.7642 0.353949 0.510986 2.41597 2.09145 0.301013 1.20449 4.14247 4.69154 0.264707 7.31229 8.55542 2.1392 9.47171 0.74799 3.40737 4.97033 4.50869 3.25 2.60368 1.87177 1.57472 6.14954 2.54151 5.18981 3.70759 3.12405 5.82956 1.81179 2.8921 2.56074 0.737212 6.22776 5.71676 0.868349 6.69295 2.70573 7.31229 2.38001 2.56322 2.84077 2.71443 1.81621 1.66829 4.80126 5.24175 4.98844 6.19371 0.599356 2.21385 3.9133 2.08984 2.8299 4.14129 7.99897 0.977885 2.57143 1.388 0.684685 2.41997 3.19284 1.68221 2.73557 1.22133 2.81763 6.66706 4.25696 1.63932 3.76202 1.81209 2.19078 7.36741 4.74545 0.820718 1.16815 3.78462 1.54292 5.07737 0.557621 4.30524 0.630893 1.41273 6.68331 4.50869 0.531609 5.69052 1.61836 4.61827 2.00512 0.603589 3.05579 2.88799 0.498299 3.29956 2.4573 2.21335 5.35039 4.48609 8.98146 0.51353 5.20136 0.746377 0.809072 1.82735 0.895557 0.969048 3.35375 1.1052 0.437157 5.56989 6.97556 1.87176 6.82457 3.49535 2.23273 4.01415 2.04781 3.74996 5.81144 3.43856 3.21106 0.180167 2.42009 4.77982 2.10318 4.21974 8.23663 0.631816 7.04161 1.45343 0.130494 1.16543 5.29291 2.36093 4.19536 0.710053 0.741466 6.45599 0.617327 1.02657 3.84717 4.75476 0.566455 3.81823 1.08711 3.40737 1.45985 4.1386 6.72094 3.34903 6.43635 5.69881 4.36132 0.407398 8.85076 0.913581 1.92989 7.16097 1.92813 1.63449 4.24353 3.73028 4.86341 4.95168 2.56322 2.55537 5.57198 0.239524 7.32305 0.939117 8.12152 4.65346 0.880094 5.25682 0.876519 3.0407 3.06134 2.9693 4.411 6.19425 4.72937 2.21694 4.00226 6.96593 0.630893 6.10848 2.31153 5.00194 2.62501 3.63375 3.3896 6.14607 3.49346 0.903335 2.52772 0.445117 3.35685 4.35765 3.1666 1.42545 2.1392 7.34686 0.354461 2.73303 0.830056 4.39509 3.23292 3.0556 5.95238 2.62245 7.77648 3.25024 3.55277 3.73444 2.36093 1.99896 4.25292 2.52343 1.58482 7.34659 0.360414 4.02234 4.8208 1.70214 5.58486 2.10718 4.35999 2.97185 1.04396 3.59815 3.29643 2.79553 6.18959 0.32696 5.23987 2.05287 1.557 3.03928 0.428491 3.81639 4.05262 5.08601 8.48242 1.63572 3.21106 2.4086 0.911186 2.17238 2.73368 5.89393 6.74159 2.57638 6.28174 1.53474 4.58093 2.77368 1.58439 0.856158 0.276432 9.39569 0.798566 0.640758 4.1386 6.51934 1.27506 3.03928 8.47359 0.424425 8.72537 1.02657 3.84824 4.70127 3.60237 3.66674 1.26607 2.93007 0.821165 4.20011 8.11334 1.1676 3.91838 3.65966 0.96633 6.11459 2.41365 4.43855 2.11393 0.827308 0.929059 1.92989 4.68188 5.36067 8.05711 1.05648 0.514693 0.385947 3.33866 3.48589 4.14247 7.24945 3.97465 1.8411 3.71923 0.828612 2.88533 6.5804 0.345015 3.56494 3.33953 0.979676 0.809759 2.05287 5.85474 1.39887 4.00598 4.37874 3.10193 6.85899 0.312076 10.9735 0.530556 2.95424 9.27484 0.386661 0.349224 3.29643 2.41978 3.21605 2.0022 2.40761 1.66829 6.0816 0.169866 3.83556 4.11291 3.66233 0.911186 7.96571 4.06224 7.00764 1.76539 1.76937 2.49595 2.72594 0.658863 3.33866 8.32932 1.94257 3.54453 0.396054 1.69415 2.34922 2.39875 5.62978 2.20091 3.28475 7.55424 1.91054 3.03486 4.18851 0.505266 3.70744 7.3048 0.566222 1.41301 2.66916 4.39509 4.31084 8.72043 1.26607 7.13394 0.491937 6.01279 0.928196 4.47439 1.87202 5.97762 2.90421 0.354461 3.10998 3.54416 2.22522 2.20951 5.87694 1.12431 1.2066 3.1288 1.44313 4.37327 0.510986 1.35716 5.79992 2.65871 2.73218 0.641161 3.67773 3.75942 4.37874 2.65285 4.00017 6.08296 2.36838 2.3845 4.58093 1.02819 2.78281 9.94654 1.74881 4.11291 6.00529 1.54851 7.13386 0.936365 8.13107 2.2816 0.539805 5.25771 2.17845 1.1052 0.652725 8.35559 0.263499 4.25292 0.642226 5.80785 0.498299 1.03929 5.08601 3.66233 1.74881 1.06959 7.89113 2.87597 2.84394 1.10557 4.68408 3.84917 4.67418 6.68797 2.41597 4.37327 7.2368 0.828612 8.13314 2.11451 0.862855 2.21486 1.29057 3.17878 3.06178 4.36711 7.17615 0.771437 3.43284 4.24078 0.765421 9.15251 2.73715 3.65721 5.72796 2.52772 10.009 0.517784 0.505266 6.25507 2.26414 0.933313 9.58209 0.225403 6.22776 2.01609 4.1384 2.56074 5.52891 5.06537 0.56729 0.169866 1.55099 3.36607 1.76471 2.05884 3.19537 1.75377 2.55313 9.7057 2.18479 6.3656 4.82517 0.699789 3.17714 1.19587 6.81272 2.54682 4.55594 3.38089 1.72257 0.828825 6.61853 0.99897 3.56495 6.88632 2.73218 1.97042 0.218445 4.97764 2.43201 8.18146 3.54416 2.98227 2.03831 3.22649 1.17063 6.07383 0.830056 8.04615 2.51323 1.89695 0.765421 0.778433 4.31084 1.25791 2.2816 1.09554 2.41365 0.287911 3.55974 5.88677 3.20127 2.17917 5.30628 8.91755 1.57348 8.51422 1.55637 1.66904 6.05397 0.672243 5.57198 0.435639 3.79263 1.24376 1.32776 8.4413 2.37081 3.14083 0.462077 5.29773 6.70252 0.485857 7.51789 0.573243 2.21354 1.52891 0.735203 5.96355 0.566455 4.01456 6.44482 4.23783 2.70173 0.831608 0.977885 1.00546 3.01359 3.30302 2.32256 0.741466 7.81759 3.10143 7.09713 2.16142 0.684685 5.7891 0.427785 0.961252 3.81885 0.922731 4.89378 1.12561 5.48222 3.66674 1.7482 3.65721 1.4372 5.82956 4.69985 1.84071 0.961252 3.912 0.754743 4.54571 1.81209 4.71049 2.02411 1.6617