<VTKFile type="UnstructuredGrid" version="0.1">
<UnstructuredGrid>
<Piece  NumberOfPoints="    2425" NumberOfCells="     404">
<Points>
<DataArray type="Float64" NumberOfComponents="3" format="ascii">
-1.20474 -6.58661 0.0
-2.30868 -8.41941 0.0
1.2579 -18.3412 0.0
2.44901 -18.0091 0.0
2.53397 -17.8044 0.0
-0.489894 -6.51895 0.0
-0.959741 -6.48037 0.0
21.7573 20.2433 0.0
23.9977 16.563 0.0
24.7211 16.5862 0.0
30.2142 18.4483 0.0
30.6333 19.7981 0.0
44.1453 -31.7598 0.0
41.0551 -33.9806 0.0
46.4984 -36.9673 0.0
47.3882 -36.948 0.0
48.3075 -36.2836 0.0
48.4514 -34.3568 0.0
47.7143 -30.7081 0.0
-6.37674 29.2495 0.0
-8.91262 26.3315 0.0
-0.736601 27.2433 0.0
-0.414268 27.5855 0.0
-1.09003 28.9808 0.0
-3.73487 30.9407 0.0
-26.7666 -37.0121 0.0
-26.0133 -34.1584 0.0
-26.0958 -33.2 0.0
-27.0224 -32.1849 0.0
-31.2012 -31.634 0.0
-31.6608 -32.6233 0.0
-32.0354 -37.713 0.0
-30.0292 -37.4472 0.0
21.815 -34.6232 0.0
20.8974 -34.2298 0.0
11.6943 -36.4895 0.0
8.98993 -37.1559 0.0
9.65433 -38.0653 0.0
12.82 -40.0908 0.0
16.5208 -38.5794 0.0
-56.5437 -18.5416 0.0
-56.0977 -18.4628 0.0
-56.1278 -12.6088 0.0
-57.3827 -9.789 0.0
-58.3505 -8.51333 0.0
-59.9417 -10.5196 0.0
-60.2231 -11.2169 0.0
26.1816 -29.4474 0.0
24.1507 -26.8835 0.0
19.6799 -29.5345 0.0
19.5169 -31.4955 0.0
21.6713 -33.5641 0.0
22.589 -33.9575 0.0
23.3161 -33.9771 0.0
51.0164 8.42895 0.0
51.0403 7.99848 0.0
57.0791 11.0913 0.0
57.1225 14.9304 0.0
56.8875 15.2025 0.0
53.4904 15.33 0.0
-44.3553 4.35589 0.0
-43.6922 5.94897 0.0
-44.5937 8.09671 0.0
-46.6477 9.1033 0.0
-48.7513 9.30683 0.0
-49.2726 8.74403 0.0
-49.6413 3.73594 0.0
4.93333 25.4419 0.0
5.27626 25.0998 0.0
6.27417 24.1538 0.0
13.2249 22.7134 0.0
13.4415 23.1668 0.0
14.2472 25.385 0.0
13.0135 26.3339 0.0
5.01611 26.6274 0.0
0.0513776 -24.0917 0.0
-0.324856 -25.4547 0.0
-0.0306332 -29.6339 0.0
0.729316 -29.9227 0.0
6.32089 -27.981 0.0
6.87054 -26.2178 0.0
3.917 -25.2537 0.0
34.4911 42.0666 0.0
33.7008 43.9055 0.0
32.6187 45.4067 0.0
25.2941 49.3701 0.0
25.0215 49.0848 0.0
25.2971 47.6426 0.0
34.0606 41.0327 0.0
-19.2884 -23.008 0.0
-16.7642 -23.2785 0.0
-14.9645 -18.6424 0.0
-19.5809 -17.2093 0.0
-20.3693 -19.306 0.0
-21.1946 -21.503 0.0
5.89077 59.285 0.0
5.40518 58.8719 0.0
0.875658 53.8895 0.0
0.93438 53.8472 0.0
3.91374 54.7833 0.0
8.86765 58.1193 0.0
10.2237 59.0611 0.0
-39.1456 -4.71714 0.0
-39.1539 -4.75241 0.0
-38.3559 -7.46978 0.0
-32.8853 -12.0165 0.0
-32.2107 -11.8591 0.0
-31.3229 -9.73513 0.0
-31.5709 -8.89309 0.0
-48.1679 -32.9967 0.0
-47.4823 -33.2324 0.0
-48.4039 -28.9694 0.0
-48.5757 -28.4871 0.0
-52.0776 -24.3244 0.0
-52.6545 -23.8083 0.0
-53.5264 -26.2077 0.0
26.264 9.56939 0.0
24.44 8.81102 0.0
25.0523 5.8711 0.0
25.8442 5.43713 0.0
31.2899 5.86609 0.0
34.6139 6.3468 0.0
34.4878 6.7019 0.0
14.4531 -52.6818 0.0
15.9549 -52.6259 0.0
16.841 -51.1241 0.0
17.5208 -48.7691 0.0
17.3623 -47.6883 0.0
16.1607 -45.6384 0.0
14.2443 -45.1605 0.0
14.1082 -45.2604 0.0
48.759 -15.0532 0.0
48.6721 -16.1289 0.0
56.5715 -17.3808 0.0
57.3924 -17.1201 0.0
58.0023 -13.6744 0.0
54.9792 -12.595 0.0
52.3606 -13.4951 0.0
-55.4066 -4.0349 0.0
-55.8912 0.468149 0.0
-59.9727 -0.325062 0.0
-59.4699 -3.91934 0.0
-58.3282 -5.32453 0.0
-37.5984 28.6784 0.0
-37.0145 26.5583 0.0
-34.1574 26.8272 0.0
-32.8471 27.0088 0.0
-32.386 28.1234 0.0
-31.4311 31.4337 0.0
-32.0216 32.2519 0.0
-37.7021 30.4714 0.0
-31.4313 34.3697 0.0
-31.396 33.0123 0.0
-30.8055 32.1941 0.0
-27.509 35.4977 0.0
-25.0428 41.259 0.0
-25.2763 41.6021 0.0
-26.4486 41.4606 0.0
-19.7348 8.86845 0.0
-16.6232 11.7134 0.0
-16.9894 15.1068 0.0
-17.8446 15.7431 0.0
-23.2799 14.2273 0.0
-9.07556 25.9975 0.0
-9.41664 25.6932 0.0
-9.11518 22.267 0.0
-2.51218 24.8928 0.0
-2.11982 25.2186 0.0
-0.89954 26.9093 0.0
5.25157 47.8561 0.0
6.77298 46.9864 0.0
11.3821 49.7088 0.0
6.18082 50.8137 0.0
2.58668 51.341 0.0
-1.42907 -62.7331 0.0
-0.12566 -62.7392 0.0
0.387605 -57.4394 0.0
0.392619 -53.3392 0.0
0.0495742 -53.1714 0.0
-4.18007 -55.1488 0.0
4.14258 17.2434 0.0
3.7682 17.2178 0.0
0.378227 16.7911 0.0
-2.25301 9.58671 0.0
2.2136 12.153 0.0
-14.4302 37.0639 0.0
-17.8044 37.9174 0.0
-22.9419 29.8302 0.0
-21.6196 30.3357 0.0
-14.3137 36.4784 0.0
-40.1483 -41.7378 0.0
-38.0191 -44.626 0.0
-35.1234 -45.7841 0.0
-32.762 -43.7843 0.0
-34.028 -40.2457 0.0
-35.1734 -39.4836 0.0
-36.1194 -39.4253 0.0
13.295 -59.2974 0.0
15.8178 -53.9277 0.0
15.6055 -53.2972 0.0
14.1037 -53.3531 0.0
10.0492 -53.6599 0.0
7.42345 -54.9821 0.0
-31.7641 27.9845 0.0
-32.2252 26.8699 0.0
-30.3255 25.4586 0.0
-26.3297 26.4684 0.0
-25.4814 28.1662 0.0
-25.3904 30.5653 0.0
-25.74 30.86 0.0
14.23 35.5097 0.0
17.6158 33.5707 0.0
18.2874 40.021 0.0
15.3801 40.6311 0.0
14.7665 40.4954 0.0
13.7434 38.4302 0.0
3.79096 -35.1258 0.0
0.485937 -30.545 0.0
-0.274012 -30.2562 0.0
-1.2614 -30.7869 0.0
-2.15947 -32.8047 0.0
-2.30553 -35.1894 0.0
17.6931 -22.2688 0.0
17.8204 -22.3248 0.0
30.7831 -17.3937 0.0
30.9912 -16.5424 0.0
30.4743 -16.0379 0.0
25.4644 -17.5775 0.0
18.8641 -19.7466 0.0
18.6313 -19.8902 0.0
16.7859 -21.4335 0.0
-43.1777 -6.81143 0.0
-41.8733 -5.78913 0.0
-40.0586 -4.31084 0.0
-40.0503 -4.27556 0.0
-40.0645 -3.94651 0.0
-45.0242 -1.95414 0.0
-47.656 -2.8372 0.0
-47.9643 -3.56672 0.0
-41.746 -17.5796 0.0
-41.8407 -17.756 0.0
-40.7129 -21.8528 0.0
-39.2752 -27.0021 0.0
-37.9002 -26.5743 0.0
-37.2787 -22.8542 0.0
-44.2458 -25.373 0.0
-45.7066 -23.5034 0.0
-51.8163 -24.0348 0.0
-48.3144 -28.1975 0.0
-38.5974 45.0571 0.0
-39.7412 44.6441 0.0
-40.2236 34.7737 0.0
-39.5677 33.5201 0.0
-38.6895 33.1406 0.0
-37.2373 35.3467 0.0
-36.8845 41.1871 0.0
-37.457 44.9993 0.0
-37.5547 45.0651 0.0
-12.3836 39.6981 0.0
-13.6216 37.3841 0.0
-13.5052 36.7986 0.0
-13.2213 36.4919 0.0
-8.64216 36.1278 0.0
-7.46973 36.6191 0.0
-6.61602 38.68 0.0
-13.2807 -50.2744 0.0
-17.1722 -51.1047 0.0
-17.5848 -51.3279 0.0
-17.4996 -52.6638 0.0
-14.8648 -59.2703 0.0
-13.6913 -59.3102 0.0
-54.3855 23.4351 0.0
-54.9313 23.1835 0.0
-56.7202 20.6792 0.0
-56.2858 16.3602 0.0
-53.1232 16.1929 0.0
-52.8734 16.906 0.0
47.7058 12.9543 0.0
48.0085 12.5673 0.0
51.2665 16.7499 0.0
46.3343 19.6314 0.0
-36.572 -22.0277 0.0
-36.8799 -23.089 0.0
-37.5015 -26.8091 0.0
-35.1169 -27.6819 0.0
-32.215 -25.2876 0.0
13.1518 60.3927 0.0
10.9575 59.0687 0.0
9.60143 58.1269 0.0
12.9785 54.2129 0.0
13.9083 54.0625 0.0
15.6018 55.7031 0.0
35.8043 4.50058 0.0
34.4291 2.49226 0.0
30.9917 -6.58332 0.0
35.5557 -4.27968 0.0
36.9416 4.0337 0.0
19.4124 -13.3442 0.0
17.0868 -14.5607 0.0
18.2076 -19.5572 0.0
18.4404 -19.4137 0.0
22.7753 -14.4949 0.0
20.4137 -13.6198 0.0
44.2658 9.57964 0.0
44.0389 7.63648 0.0
50.0056 8.53194 0.0
47.8448 11.8975 0.0
47.5421 12.2845 0.0
11.5452 32.814 0.0
12.8199 33.504 0.0
13.7184 35.2779 0.0
13.2318 38.1985 0.0
10.706 37.3151 0.0
6.83667 33.7455 0.0
29.492 -27.9001 0.0
26.6677 -29.5927 0.0
23.8022 -34.1224 0.0
24.7364 -34.9167 0.0
28.2552 -34.7221 0.0
30.8824 -31.7923 0.0
51.3418 23.9388 0.0
51.7371 21.7089 0.0
53.4405 17.7478 0.0
59.3706 24.0257 0.0
-49.8044 13.0295 0.0
-51.0447 13.6572 0.0
-56.7049 9.73766 0.0
-54.1001 9.37999 0.0
-49.7889 9.19687 0.0
-49.2676 9.75967 0.0
-24.254 43.1301 0.0
-24.4868 42.4478 0.0
-24.2534 42.1047 0.0
-20.8928 41.7106 0.0
-19.7902 42.916 0.0
-18.0586 46.566 0.0
-16.7267 51.4942 0.0
4.89065 -58.877 0.0
5.1425 -54.9161 0.0
3.96272 -53.4346 0.0
2.51344 -53.1826 0.0
0.823503 -53.1569 0.0
0.818489 -57.2571 0.0
6.70169 -16.4803 0.0
12.2062 -15.5104 0.0
11.0301 -11.8808 0.0
10.6409 -11.1654 0.0
9.96735 -10.8935 0.0
-0.195589 26.8158 0.0
-1.41587 25.125 0.0
-0.141922 18.5268 0.0
-0.0741664 18.5354 0.0
4.06056 25.3481 0.0
4.14333 26.5336 0.0
4.06483 26.6725 0.0
3.27818 27.2969 0.0
0.126744 27.158 0.0
34.0196 35.9682 0.0
33.7819 34.9288 0.0
39.7965 28.7201 0.0
41.0427 28.2808 0.0
40.8142 29.5645 0.0
37.5745 35.8399 0.0
35.3682 37.2262 0.0
-55.7707 -18.6617 0.0
-54.5769 -19.2843 0.0
-52.3043 -11.4169 0.0
-55.8008 -12.8078 0.0
11.4744 -11.6865 0.0
12.6505 -15.3162 0.0
13.3504 -15.8837 0.0
14.7448 -14.8508 0.0
16.549 -10.4405 0.0
17.4721 -8.13004 0.0
39.1471 -5.26258 0.0
39.6386 -4.10235 0.0
39.3642 4.62171 0.0
37.3035 4.09267 0.0
35.9175 -4.22071 0.0
57.5448 -17.6558 0.0
56.724 -17.9164 0.0
50.2702 -21.4204 0.0
57.8383 -22.6092 0.0
57.9784 -22.4027 0.0
58.4563 -19.6023 0.0
22.9454 -41.5583 0.0
21.9198 -41.9609 0.0
22.3677 -46.6048 0.0
27.467 -45.8964 0.0
27.4199 -44.8516 0.0
-11.3218 -25.7843 0.0
-11.2539 -26.9901 0.0
-2.86296 -32.2838 0.0
-1.96489 -30.266 0.0
-8.41928 -24.7305 0.0
-9.42128 -24.0348 0.0
-17.6473 27.6701 0.0
-19.5229 23.6128 0.0
-19.3483 23.2672 0.0
-17.7305 22.0317 0.0
-14.7 24.431 0.0
-12.4479 29.7482 0.0
-16.8902 28.5029 0.0
47.6555 -21.8458 0.0
47.5398 -21.2515 0.0
38.1136 -20.7511 0.0
36.8976 -21.118 0.0
35.4443 -22.0768 0.0
35.4497 -22.9911 0.0
47.4713 -22.1398 0.0
-50.4625 -4.61748 0.0
-49.7086 -4.8823 0.0
-48.6567 -3.21184 0.0
-48.3484 -2.48231 0.0
-50.4438 2.18769 0.0
-52.59 2.87088 0.0
-54.1732 3.16236 0.0
-3.4187 0.0443368 0.0
-4.35371 1.50661 0.0
-8.11768 -0.863009 0.0
-3.42712 -4.46281 0.0
-1.66227 -5.54351 0.0
-1.41727 -5.43728 0.0
43.4441 20.6478 0.0
44.0717 22.9463 0.0
43.4497 25.7287 0.0
42.2658 26.0979 0.0
38.3994 22.563 0.0
38.1239 21.9929 0.0
38.3771 21.2115 0.0
-11.1795 -27.4268 0.0
-11.2814 -27.8267 0.0
-5.06063 -35.9228 0.0
-3.49469 -36.7625 0.0
-2.93465 -35.1052 0.0
-2.78859 -32.7205 0.0
-29.2692 10.7644 0.0
-29.0816 7.8873 0.0
-23.8218 2.53164 0.0
-22.5243 3.45674 0.0
-21.5313 4.62221 0.0
-21.6581 5.63515 0.0
-28.1244 11.6621 0.0
-26.6622 -37.5636 0.0
-29.9247 -37.9987 0.0
-29.321 -43.8296 0.0
-26.4225 -41.2386 0.0
-26.1242 -40.8079 0.0
-18.0962 -2.31474 0.0
-14.6699 -1.96591 0.0
-16.3867 1.5293 0.0
-16.658 1.89193 0.0
-17.5878 2.41854 0.0
-20.7916 3.98916 0.0
-21.7846 2.82369 0.0
-30.0221 0.148499 0.0
-31.0576 3.30066 0.0
-35.5143 4.82708 0.0
-36.9393 4.87731 0.0
-37.6254 4.16717 0.0
-37.2335 1.6044 0.0
-20.766 -29.798 0.0
-19.9023 -26.8278 0.0
-19.6734 -23.5044 0.0
-21.5797 -21.9995 0.0
-23.1119 -22.1902 0.0
-25.3525 -24.8101 0.0
16.6335 43.2468 0.0
18.5324 46.0678 0.0
[...]
<CellData Scalars="cell variable 4" Vectors="cell vector">
<DataArray type="Float64" NumberOfComponents="3" Name="cell vector" format="ascii">
0 0 0
0 0 0
0 0 0
0 0 0
0 0 0
0 0 0
0 0 0
0 0 0
0 0 0
0 0 0
0 0 0
0 0 0
0 0 0
0 0 0
0 0 0
0 0 0
0 0 0
0 0 0
0 0 0
0 0 0
0 0 0
0 0 0
0 0 0
0 0 0
0 0 0
0 0 0
0 0 0
0 0 0
0 0 0
0 0 0
0 0 0
0 0 0
0 0 0
0 0 0
0 0 0
0 0 0
0 0 0
0 0 0
0 0 0
0 0 0
0 0 0
0 0 0
0 0 0
0 0 0
0 0 0
0 0 0
0 0 0
0 0 0
0 0 0
0 0 0
0 0 0
0 0 0
0 0 0
0 0 0
0 0 0
0 0 0
0 0 0
0 0 0
0 0 0
0 0 0
0 0 0
0 0 0
0 0 0
0 0 0
0 0 0
0 0 0
0 0 0
0 0 0
0 0 0
0 0 0
0 0 0
0 0 0
0 0 0
0 0 0
0 0 0
0 0 0
0 0 0
0 0 0
0 0 0
0 0 0
0 0 0
0 0 0
0 0 0
0 0 0
0 0 0
0 0 0
0 0 0
0 0 0
0 0 0
0 0 0
0 0 0
0 0 0
0 0 0
0 0 0
0 0 0
0 0 0
0 0 0
0 0 0
0 0 0
0 0 0
0 0 0
0 0 0
0 0 0
0 0 0
0 0 0
0 0 0
0 0 0
0 0 0
0 0 0
0 0 0
0 0 0
0 0 0
0 0 0
0 0 0
0 0 0
0 0 0
0 0 0
0 0 0
0 0 0
0 0 0
0 0 0
0 0 0
0 0 0
0 0 0
0 0 0
0 0 0
0 0 0
0 0 0
0 0 0
0 0 0
0 0 0
0 0 0
0 0 0
0 0 0
0 0 0
0 0 0
0 0 0
0 0 0
0 0 0
0 0 0
0 0 0
0 0 0
0 0 0
0 0 0
0 0 0
0 0 0
0 0 0
0 0 0
0 0 0
0 0 0
0 0 0
0 0 0
0 0 0
0 0 0
0 0 0
0 0 0
0 0 0
0 0 0
0 0 0
0 0 0
0 0 0
0 0 0
0 0 0
0 0 0
0 0 0
0 0 0
0 0 0
0 0 0
0 0 0
0 0 0
0 0 0
0 0 0
0 0 0
0 0 0
0 0 0
0 0 0
0 0 0
0 0 0
0 0 0
0 0 0
0 0 0
0 0 0
0 0 0
0 0 0
0 0 0
0 0 0
0 0 0
0 0 0
0 0 0
0 0 0
0 0 0
0 0 0
0 0 0
0 0 0
0 0 0
0 0 0
0 0 0
0 0 0
0 0 0
0 0 0
0 0 0
0 0 0
0 0 0
0 0 0
0 0 0
0 0 0
0 0 0
0 0 0
0 0 0
0 0 0
0 0 0
0 0 0
0 0 0
0 0 0
0 0 0
0 0 0
0 0 0
0 0 0
0 0 0
0 0 0
0 0 0
0 0 0
0 0 0
0 0 0
0 0 0
0 0 0
0 0 0
0 0 0
0 0 0
0 0 0
0 0 0
0 0 0
0 0 0
0 0 0
0 0 0
0 0 0
0 0 0
0 0 0
0 0 0
0 0 0
0 0 0
0 0 0
0 0 0
0 0 0
0 0 0
0 0 0
0 0 0
0 0 0
0 0 0
0 0 0
0 0 0
0 0 0
0 0 0
0 0 0
0 0 0
0 0 0
0 0 0
0 0 0
0 0 0
0 0 0
0 0 0
0 0 0
0 0 0
0 0 0
0 0 0
0 0 0
0 0 0
0 0 0
0 0 0
0 0 0
0 0 0
0 0 0
0 0 0
0 0 0
0 0 0
0 0 0
0 0 0
0 0 0
0 0 0
0 0 0
0 0 0
0 0 0
0 0 0
0 0 0
0 0 0
0 0 0
0 0 0
0 0 0
0 0 0
0 0 0
0 0 0
0 0 0
0 0 0
0 0 0
0 0 0
0 0 0
0 0 0
0 0 0
0 0 0
0 0 0
0 0 0
0 0 0
0 0 0
0 0 0
0 0 0
0 0 0
0 0 0
0 0 0
0 0 0
0 0 0
0 0 0
0 0 0
0 0 0
0 0 0
0 0 0
0 0 0
0 0 0
0 0 0
0 0 0
0 0 0
0 0 0
0 0 0
0 0 0
0 0 0
0 0 0
0 0 0
0 0 0
0 0 0
0 0 0
0 0 0
0 0 0
0 0 0
0 0 0
0 0 0
0 0 0
0 0 0
0 0 0
0 0 0
0 0 0
0 0 0
0 0 0
0 0 0
0 0 0
0 0 0
0 0 0
0 0 0
0 0 0
0 0 0
0 0 0
0 0 0
0 0 0
0 0 0
0 0 0
0 0 0
0 0 0
0 0 0
0 0 0
0 0 0
0 0 0
0 0 0
0 0 0
0 0 0
0 0 0
0 0 0
0 0 0
0 0 0
0 0 0
0 0 0
0 0 0
0 0 0
0 0 0
0 0 0
0 0 0
0 0 0
0 0 0
0 0 0
0 0 0
0 0 0
0 0 0
0 0 0
0 0 0
0 0 0
0 0 0
0 0 0
0 0 0
0 0 0
0 0 0
0 0 0
0 0 0
0 0 0
0 0 0
0 0 0
0 0 0
0 0 0
0 0 0
0 0 0
0 0 0
0 0 0
0 0 0
0 0 0
0 0 0
0 0 0
0 0 0
0 0 0
</DataArray>
<DataArray type="Float64" Name="cell vector length" format="ascii">
0 0 0 0 0 0 0 0 0 0 0 0 0 0 0 0 0 0 0 0 0 0 0 0 0 0 0 0 0 0 0 0 0 0 0 0 0 0 0 0 0 0 0 0 0 0 0 0 0 0 0 0 0 0 0 0 0 0 0 0 0 0 0 0 0 0 0 0 0 0 0 0 0 0 0 0 0 0 0 0 0 0 0 0 0 0 0 0 0 0 0 0 0 0 0 0 0 0 0 0 0 0 0 0 0 0 0 0 0 0 0 0 0 0 0 0 0 0 0 0 0 0 0 0 0 0 0 0 0 0 0 0 0 0 0 0 0 0 0 0 0 0 0 0 0 0 0 0 0 0 0 0 0 0 0 0 0 0 0 0 0 0 0 0 0 0 0 0 0 0 0 0 0 0 0 0 0 0 0 0 0 0 0 0 0 0 0 0 0 0 0 0 0 0 0 0 0 0 0 0 0 0 0 0 0 0 0 0 0 0 0 0 0 0 0 0 0 0 0 0 0 0 0 0 0 0 0 0 0 0 0 0 0 0 0 0 0 0 0 0 0 0 0 0 0 0 0 0 0 0 0 0 0 0 0 0 0 0 0 0 0 0 0 0 0 0 0 0 0 0 0 0 0 0 0 0 0 0 0 0 0 0 0 0 0 0 0 0 0 0 0 0 0 0 0 0 0 0 0 0 0 0 0 0 0 0 0 0 0 0 0 0 0 0 0 0 0 0 0 0 0 0 0 0 0 0 0 0 0 0 0 0 0 0 0 0 0 0 0 0 0 0 0 0 0 0 0 0 0 0 0 0 0 0 0 0 0 0 0 0 0 0 0 0 0 0 0 0 0 0 0 0 0 0 0 0 0 0 0 0 0 0 0 0 0 0 0 0 0 0 0 0 0 0 0 0 0 0 0 0 0 0 0 0 
</DataArray>
<DataArray type="Float64" Name="cell variable 4" format="ascii">
1.11547 1.06245 0.657465 1.07467 0.631062 0.94865 0.542818 0.94865 0.736473 0.8063 1.14226 1.04461 0.790107 1.04461 0.626025 0.919422 0.631062 1.10185 0.789941 0.573608 0.542818 0.99432 0.99432 1.00681 1.07467 0.626025 0.789941 1.14226 0.99432 0.631062 0.789941 0.99432 0.980966 1.04461 1.11547 0.919422 0.919422 0.631062 0.673042 0.763876 0.66381 0.8063 0.848855 0.919422 0.626025 1.10185 1.11547 0.848855 0.980966 0.657465 0.848855 0.8063 0.763876 0.789941 1.11547 1.07467 1.06245 0.542818 1.11547 0.912892 0.573608 0.708918 1.04461 1.07467 0.912892 0.542818 1.12037 0.848855 1.04461 1.00681 0.631062 1.12037 1.00681 0.90618 0.626025 1.04461 0.66381 0.94865 0.90618 1.11547 0.573608 0.708918 1.11547 0.848855 1.11547 0.912892 1.04461 1.10185 1.14226 1.07467 0.790107 0.708918 0.99432 0.626025 0.980966 0.980966 0.763876 0.919422 1.12037 1.11547 1.04461 1.04461 0.919422 0.94865 0.919422 0.919422 0.542818 1.12037 0.573608 0.912892 0.763876 0.790107 0.763876 0.673042 0.912892 1.14226 0.789941 0.657465 1.11547 0.789941 0.626025 1.07467 1.00681 0.94865 0.673042 0.673042 0.66381 1.06245 0.99432 0.790107 0.66381 1.11547 0.789941 1.07467 0.626025 1.06245 0.631062 0.789941 1.04461 0.789941 0.790107 1.00681 1.12037 0.763876 0.542818 0.980966 0.66381 0.99432 0.980966 0.848855 1.04461 0.980966 0.919422 0.919422 1.00681 0.8063 0.912892 1.12037 0.542818 1.06245 1.07467 0.94865 0.848855 1.06245 1.00681 0.763876 0.657465 1.11547 1.11547 1.10185 1.10185 0.919422 1.12037 0.919422 0.848855 0.673042 1.00681 1.00681 0.66381 0.790107 1.12037 1.00681 1.00681 0.657465 1.00681 0.980966 0.763876 1.11547 0.673042 0.848855 1.07467 0.912892 1.07467 0.631062 0.980966 0.789941 0.94865 0.763876 0.8063 0.919422 0.790107 0.90618 0.919422 0.657465 1.12037 0.912892 0.763876 0.90618 0.763876 0.980966 1.07467 1.10185 0.631062 1.06245 0.980966 1.10185 0.980966 0.673042 0.573608 1.07467 1.04461 1.04461 0.790107 1.10185 0.657465 0.8063 0.573608 1.10185 0.912892 0.763876 1.07467 0.90618 0.848855 1.10185 1.04461 0.919422 1.10185 0.912892 0.8063 0.631062 0.99432 0.94865 0.919422 1.11547 0.919422 1.00681 0.90618 0.736473 0.36504 1.07467 1.10185 0.848855 0.626025 1.14226 0.912892 0.763876 1.10185 0.99432 0.657465 0.790107 1.11547 0.573608 1.06245 0.919422 0.626025 0.631062 1.14226 0.912892 0.912892 0.919422 1.11547 0.789941 0.919422 0.542818 1.14226 1.11547 0.94865 0.631062 0.94865 1.11547 0.626025 1.06245 0.8063 0.912892 0.789941 0.912892 0.631062 1.14226 1.10185 1.00681 0.912892 1.14226 0.94865 0.763876 0.790107 0.8063 0.66381 1.12037 0.66381 0.673042 0.912892 0.790107 1.12037 1.06245 0.912892 0.848855 0.848855 0.673042 0.94865 0.90618 0.90618 0.763876 1.12037 1.07467 0.912892 0.848855 1.10185 1.11547 0.980966 0.8063 0.631062 0.789941 0.789941 0.848855 0.763876 0.848855 0.789941 1.14226 0.573608 0.8063 1.04461 1.14226 0.912892 0.708918 0.790107 0.980966 0.90618 0.980966 1.04461 0.657465 0.90618 0.919422 1.00681 0.94865 0.99432 1.06245 0.8063 0.848855 0.99432 1.12037 0.657465 0.626025 0.919422 0.657465 1.00681 0.789941 0.631062 0.8063 0.8063 1.14226 1.12037 0.708918 0.657465 0.919422 0.919422 0.763876 0.848855 1.06245 0.789941 1.11547 0.980966 0.789941 1.00681 1.10185 0.90618 1.04461 1.12037 0.919422 0.673042 0.626025 0.66381 1.11547 1.06245 0.8063 0.631062 0.919422 0.626025 0.90618 1.14226 0.542818 0.626025 1.04461 0.90618 0.657465 0.657465 0.919422 0.66381 1.12037 1.06245 1.06245 1.07467 1.11547 0.673042 0.790107 
</DataArray>
<DataArray type="Float64" Name="cell variable 5" format="ascii">
0.00797274 0.00878122 0.0226112 0.00858434 0.0244954 0.0109898 0.0328244 0.0109898 0.0181031 0.0151488 0.00760594 0.00908091 0.0157662 0.00908091 0.0248813 0.0116913 0.0244954 0.00816951 0.0157727 0.0294962 0.0328244 0.0100133 0.0100133 0.00976872 0.00858434 0.0248813 0.0157727 0.00760594 0.0100133 0.0244954 0.0157727 0.0100133 0.0102849 0.00908091 0.00797274 0.0116913 0.0116913 0.0244954 0.021599 0.016849 0.0221905 0.0151488 0.0136882 0.0116913 0.0248813 0.00816951 0.00797274 0.0136882 0.0102849 0.0226112 0.0136882 0.0151488 0.016849 0.0157727 0.00797274 0.00858434 0.00878122 0.0328244 0.00797274 0.0118572 0.0294962 0.0195097 0.00908091 0.00858434 0.0118572 0.0328244 0.00790366 0.0136882 0.00908091 0.00976872 0.0244954 0.00790366 0.00976872 0.0120314 0.0248813 0.00908091 0.0221905 0.0109898 0.0120314 0.00797274 0.0294962 0.0195097 0.00797274 0.0136882 0.00797274 0.0118572 0.00908091 0.00816951 0.00760594 0.00858434 0.0157662 0.0195097 0.0100133 0.0248813 0.0102849 0.0102849 0.016849 0.0116913 0.00790366 0.00797274 0.00908091 0.00908091 0.0116913 0.0109898 0.0116913 0.0116913 0.0328244 0.00790366 0.0294962 0.0118572 0.016849 0.0157662 0.016849 0.021599 0.0118572 0.00760594 0.0157727 0.0226112 0.00797274 0.0157727 0.0248813 0.00858434 0.00976872 0.0109898 0.021599 0.021599 0.0221905 0.00878122 0.0100133 0.0157662 0.0221905 0.00797274 0.0157727 0.00858434 0.0248813 0.00878122 0.0244954 0.0157727 0.00908091 0.0157727 0.0157662 0.00976872 0.00790366 0.016849 0.0328244 0.0102849 0.0221905 0.0100133 0.0102849 0.0136882 0.00908091 0.0102849 0.0116913 0.0116913 0.00976872 0.0151488 0.0118572 0.00790366 0.0328244 0.00878122 0.00858434 0.0109898 0.0136882 0.00878122 0.00976872 0.016849 0.0226112 0.00797274 0.00797274 0.00816951 0.00816951 0.0116913 0.00790366 0.0116913 0.0136882 0.021599 0.00976872 0.00976872 0.0221905 0.0157662 0.00790366 0.00976872 0.00976872 0.0226112 0.00976872 0.0102849 0.016849 0.00797274 0.021599 0.0136882 0.00858434 0.0118572 0.00858434 0.0244954 0.0102849 0.0157727 0.0109898 0.016849 0.0151488 0.0116913 0.0157662 0.0120314 0.0116913 0.0226112 0.00790366 0.0118572 0.016849 0.0120314 0.016849 0.0102849 0.00858434 0.00816951 0.0244954 0.00878122 0.0102849 0.00816951 0.0102849 0.021599 0.0294962 0.00858434 0.00908091 0.00908091 0.0157662 0.00816951 0.0226112 0.0151488 0.0294962 0.00816951 0.0118572 0.016849 0.00858434 0.0120314 0.0136882 0.00816951 0.00908091 0.0116913 0.00816951 0.0118572 0.0151488 0.0244954 0.0100133 0.0109898 0.0116913 0.00797274 0.0116913 0.00976872 0.0120314 0.0181031 0.0698059 0.00858434 0.00816951 0.0136882 0.0248813 0.00760594 0.0118572 0.016849 0.00816951 0.0100133 0.0226112 0.0157662 0.00797274 0.0294962 0.00878122 0.0116913 0.0248813 0.0244954 0.00760594 0.0118572 0.0118572 0.0116913 0.00797274 0.0157727 0.0116913 0.0328244 0.00760594 0.00797274 0.0109898 0.0244954 0.0109898 0.00797274 0.0248813 0.00878122 0.0151488 0.0118572 0.0157727 0.0118572 0.0244954 0.00760594 0.00816951 0.00976872 0.0118572 0.00760594 0.0109898 0.016849 0.0157662 0.0151488 0.0221905 0.00790366 0.0221905 0.021599 0.0118572 0.0157662 0.00790366 0.00878122 0.0118572 0.0136882 0.0136882 0.021599 0.0109898 0.0120314 0.0120314 0.016849 0.00790366 0.00858434 0.0118572 0.0136882 0.00816951 0.00797274 0.0102849 0.0151488 0.0244954 0.0157727 0.0157727 0.0136882 0.016849 0.0136882 0.0157727 0.00760594 0.0294962 0.0151488 0.00908091 0.00760594 0.0118572 0.0195097 0.0157662 0.0102849 0.0120314 0.0102849 0.00908091 0.0226112 0.0120314 0.0116913 0.00976872 0.0109898 0.0100133 0.00878122 0.0151488 0.0136882 0.0100133 0.00790366 0.0226112 0.0248813 0.0116913 0.0226112 0.00976872 0.0157727 0.0244954 0.0151488 0.0151488 0.00760594 0.00790366 0.0195097 0.0226112 0.0116913 0.0116913 0.016849 0.0136882 0.00878122 0.0157727 0.00797274 0.0102849 0.0157727 0.00976872 0.00816951 0.0120314 0.00908091 0.00790366 0.0116913 0.021599 0.0248813 0.0221905 0.00797274 0.00878122 0.0151488 0.0244954 0.0116913 0.0248813 0.0120314 0.00760594 0.0328244 0.0248813 0.00908091 0.0120314 0.0226112 0.0226112 0.0116913 0.0221905 0.00790366 0.00878122 0.00878122 0.00858434 0.00797274 0.021599 0.0157662 
</DataArray>
<DataArray type="Float64" Name="cell variable 6" format="ascii">
4.32387e-06 5.74138e-06 8.84138e-05 5.3719e-06 0.000110922 1.10661e-05 0.000251962 1.10661e-05 4.69278e-05 2.80904e-05 3.76475e-06 6.33494e-06 3.15261e-05 6.33494e-06 0.000115922 1.32528e-05 0.000110922 4.64493e-06 3.156e-05 0.000187165 0.000251962 8.43313e-06 8.43313e-06 7.8448e-06 5.3719e-06 0.000115922 3.156e-05 3.76475e-06 8.43313e-06 0.000110922 3.156e-05 8.43313e-06 9.11938e-06 6.33494e-06 4.32387e-06 1.32528e-05 1.32528e-05 0.000110922 7.76673e-05 3.81646e-05 8.3838e-05 2.80904e-05 2.09522e-05 1.32528e-05 0.000115922 4.64493e-06 4.32387e-06 2.09522e-05 9.11938e-06 8.84138e-05 2.09522e-05 2.80904e-05 3.81646e-05 3.156e-05 4.32387e-06 5.3719e-06 5.74138e-06 0.000251962 4.32387e-06 1.38076e-05 0.000187165 5.81379e-05 6.33494e-06 5.3719e-06 1.38076e-05 0.000251962 4.21468e-06 2.09522e-05 6.33494e-06 7.8448e-06 0.000110922 4.21468e-06 7.8448e-06 1.4406e-05 0.000115922 6.33494e-06 8.3838e-05 1.10661e-05 1.4406e-05 4.32387e-06 0.000187165 5.81379e-05 4.32387e-06 2.09522e-05 4.32387e-06 1.38076e-05 6.33494e-06 4.64493e-06 3.76475e-06 5.3719e-06 3.15261e-05 5.81379e-05 8.43313e-06 0.000115922 9.11938e-06 9.11938e-06 3.81646e-05 1.32528e-05 4.21468e-06 4.32387e-06 6.33494e-06 6.33494e-06 1.32528e-05 1.10661e-05 1.32528e-05 1.32528e-05 0.000251962 4.21468e-06 0.000187165 1.38076e-05 3.81646e-05 3.15261e-05 3.81646e-05 7.76673e-05 1.38076e-05 3.76475e-06 3.156e-05 8.84138e-05 4.32387e-06 3.156e-05 0.000115922 5.3719e-06 7.8448e-06 1.10661e-05 7.76673e-05 7.76673e-05 8.3838e-05 5.74138e-06 8.43313e-06 3.15261e-05 8.3838e-05 4.32387e-06 3.156e-05 5.3719e-06 0.000115922 5.74138e-06 0.000110922 3.156e-05 6.33494e-06 3.156e-05 3.15261e-05 7.8448e-06 4.21468e-06 3.81646e-05 0.000251962 9.11938e-06 8.3838e-05 8.43313e-06 9.11938e-06 2.09522e-05 6.33494e-06 9.11938e-06 1.32528e-05 1.32528e-05 7.8448e-06 2.80904e-05 1.38076e-05 4.21468e-06 0.000251962 5.74138e-06 5.3719e-06 1.10661e-05 2.09522e-05 5.74138e-06 7.8448e-06 3.81646e-05 8.84138e-05 4.32387e-06 4.32387e-06 4.64493e-06 4.64493e-06 1.32528e-05 4.21468e-06 1.32528e-05 2.09522e-05 7.76673e-05 7.8448e-06 7.8448e-06 8.3838e-05 3.15261e-05 4.21468e-06 7.8448e-06 7.8448e-06 8.84138e-05 7.8448e-06 9.11938e-06 3.81646e-05 4.32387e-06 7.76673e-05 2.09522e-05 5.3719e-06 1.38076e-05 5.3719e-06 0.000110922 9.11938e-06 3.156e-05 1.10661e-05 3.81646e-05 2.80904e-05 1.32528e-05 3.15261e-05 1.4406e-05 1.32528e-05 8.84138e-05 4.21468e-06 1.38076e-05 3.81646e-05 1.4406e-05 3.81646e-05 9.11938e-06 5.3719e-06 4.64493e-06 0.000110922 5.74138e-06 9.11938e-06 4.64493e-06 9.11938e-06 7.76673e-05 0.000187165 5.3719e-06 6.33494e-06 6.33494e-06 3.15261e-05 4.64493e-06 8.84138e-05 2.80904e-05 0.000187165 4.64493e-06 1.38076e-05 3.81646e-05 5.3719e-06 1.4406e-05 2.09522e-05 4.64493e-06 6.33494e-06 1.32528e-05 4.64493e-06 1.38076e-05 2.80904e-05 0.000110922 8.43313e-06 1.10661e-05 1.32528e-05 4.32387e-06 1.32528e-05 7.8448e-06 1.4406e-05 4.69278e-05 0.0019794 5.3719e-06 4.64493e-06 2.09522e-05 0.000115922 3.76475e-06 1.38076e-05 3.81646e-05 4.64493e-06 8.43313e-06 8.84138e-05 3.15261e-05 4.32387e-06 0.000187165 5.74138e-06 1.32528e-05 0.000115922 0.000110922 3.76475e-06 1.38076e-05 1.38076e-05 1.32528e-05 4.32387e-06 3.156e-05 1.32528e-05 0.000251962 3.76475e-06 4.32387e-06 1.10661e-05 0.000110922 1.10661e-05 4.32387e-06 0.000115922 5.74138e-06 2.80904e-05 1.38076e-05 3.156e-05 1.38076e-05 0.000110922 3.76475e-06 4.64493e-06 7.8448e-06 1.38076e-05 3.76475e-06 1.10661e-05 3.81646e-05 3.15261e-05 2.80904e-05 8.3838e-05 4.21468e-06 8.3838e-05 7.76673e-05 1.38076e-05 3.15261e-05 4.21468e-06 5.74138e-06 1.38076e-05 2.09522e-05 2.09522e-05 7.76673e-05 1.10661e-05 1.4406e-05 1.4406e-05 3.81646e-05 4.21468e-06 5.3719e-06 1.38076e-05 2.09522e-05 4.64493e-06 4.32387e-06 9.11938e-06 2.80904e-05 0.000110922 3.156e-05 3.156e-05 2.09522e-05 3.81646e-05 2.09522e-05 3.156e-05 3.76475e-06 0.000187165 2.80904e-05 6.33494e-06 3.76475e-06 1.38076e-05 5.81379e-05 3.15261e-05 9.11938e-06 1.4406e-05 9.11938e-06 6.33494e-06 8.84138e-05 1.4406e-05 1.32528e-05 7.8448e-06 1.10661e-05 8.43313e-06 5.74138e-06 2.80904e-05 2.09522e-05 8.43313e-06 4.21468e-06 8.84138e-05 0.000115922 1.32528e-05 8.84138e-05 7.8448e-06 3.156e-05 0.000110922 2.80904e-05 2.80904e-05 3.76475e-06 4.21468e-06 5.81379e-05 8.84138e-05 1.32528e-05 1.32528e-05 3.81646e-05 2.09522e-05 5.74138e-06 3.156e-05 4.32387e-06 9.11938e-06 3.156e-05 7.8448e-06 4.64493e-06 1.4406e-05 6.33494e-06 4.21468e-06 1.32528e-05 7.76673e-05 0.000115922 8.3838e-05 4.32387e-06 5.74138e-06 2.80904e-05 0.000110922 1.32528e-05 0.000115922 1.4406e-05 3.76475e-06 0.000251962 0.000115922 6.33494e-06 1.4406e-05 8.84138e-05 8.84138e-05 1.32528e-05 8.3838e-05 4.21468e-06 5.74138e-06 5.74138e-06 5.3719e-06 4.32387e-06 7.76673e-05 3.15261e-05 
</DataArray>
<DataArray type="Float64" Name="cell variable 7" format="ascii">
0.0788486 0.0886341 0.176526 0.0863829 0.184332 0.109939 0.214434 0.109939 0.15552 0.139181 0.0738515 0.091923 0.142821 0.091923 0.185875 0.115625 0.184332 0.0813708 0.142859 0.203114 0.214434 0.10127 0.10127 0.0989326 0.0863829 0.185875 0.142859 0.0738515 0.10127 0.184332 0.142859 0.10127 0.103782 0.091923 0.0788486 0.115625 0.115625 0.184332 0.172124 0.148901 0.174715 0.139181 0.129973 0.115625 0.185875 0.0813708 0.0788486 0.129973 0.103782 0.176526 0.129973 0.139181 0.148901 0.142859 0.0788486 0.0863829 0.0886341 0.214434 0.0788486 0.116913 0.203114 0.162493 0.091923 0.0863829 0.116913 0.214434 0.0779382 0.129973 0.091923 0.0989326 0.184332 0.0779382 0.0989326 0.118245 0.185875 0.091923 0.174715 0.109939 0.118245 0.0788486 0.203114 0.162493 0.0788486 0.129973 0.0788486 0.116913 0.091923 0.0813708 0.0738515 0.0863829 0.142821 0.162493 0.10127 0.185875 0.103782 0.103782 0.148901 0.115625 0.0779382 0.0788486 0.091923 0.091923 0.115625 0.109939 0.115625 0.115625 0.214434 0.0779382 0.203114 0.116913 0.148901 0.142821 0.148901 0.172124 0.116913 0.0738515 0.142859 0.176526 0.0788486 0.142859 0.185875 0.0863829 0.0989326 0.109939 0.172124 0.172124 0.174715 0.0886341 0.10127 0.142821 0.174715 0.0788486 0.142859 0.0863829 0.185875 0.0886341 0.184332 0.142859 0.091923 0.142859 0.142821 0.0989326 0.0779382 0.148901 0.214434 0.103782 0.174715 0.10127 0.103782 0.129973 0.091923 0.103782 0.115625 0.115625 0.0989326 0.139181 0.116913 0.0779382 0.214434 0.0886341 0.0863829 0.109939 0.129973 0.0886341 0.0989326 0.148901 0.176526 0.0788486 0.0788486 0.0813708 0.0813708 0.115625 0.0779382 0.115625 0.129973 0.172124 0.0989326 0.0989326 0.174715 0.142821 0.0779382 0.0989326 0.0989326 0.176526 0.0989326 0.103782 0.148901 0.0788486 0.172124 0.129973 0.0863829 0.116913 0.0863829 0.184332 0.103782 0.142859 0.109939 0.148901 0.139181 0.115625 0.142821 0.118245 0.115625 0.176526 0.0779382 0.116913 0.148901 0.118245 0.148901 0.103782 0.0863829 0.0813708 0.184332 0.0886341 0.103782 0.0813708 0.103782 0.172124 0.203114 0.0863829 0.091923 0.091923 0.142821 0.0813708 0.176526 0.139181 0.203114 0.0813708 0.116913 0.148901 0.0863829 0.118245 0.129973 0.0813708 0.091923 0.115625 0.0813708 0.116913 0.139181 0.184332 0.10127 0.109939 0.115625 0.0788486 0.115625 0.0989326 0.118245 0.15552 0.311423 0.0863829 0.0813708 0.129973 0.185875 0.0738515 0.116913 0.148901 0.0813708 0.10127 0.176526 0.142821 0.0788486 0.203114 0.0886341 0.115625 0.185875 0.184332 0.0738515 0.116913 0.116913 0.115625 0.0788486 0.142859 0.115625 0.214434 0.0738515 0.0788486 0.109939 0.184332 0.109939 0.0788486 0.185875 0.0886341 0.139181 0.116913 0.142859 0.116913 0.184332 0.0738515 0.0813708 0.0989326 0.116913 0.0738515 0.109939 0.148901 0.142821 0.139181 0.174715 0.0779382 0.174715 0.172124 0.116913 0.142821 0.0779382 0.0886341 0.116913 0.129973 0.129973 0.172124 0.109939 0.118245 0.118245 0.148901 0.0779382 0.0863829 0.116913 0.129973 0.0813708 0.0788486 0.103782 0.139181 0.184332 0.142859 0.142859 0.129973 0.148901 0.129973 0.142859 0.0738515 0.203114 0.139181 0.091923 0.0738515 0.116913 0.162493 0.142821 0.103782 0.118245 0.103782 0.091923 0.176526 0.118245 0.115625 0.0989326 0.109939 0.10127 0.0886341 0.139181 0.129973 0.10127 0.0779382 0.176526 0.185875 0.115625 0.176526 0.0989326 0.142859 0.184332 0.139181 0.139181 0.0738515 0.0779382 0.162493 0.176526 0.115625 0.115625 0.148901 0.129973 0.0886341 0.142859 0.0788486 0.103782 0.142859 0.0989326 0.0813708 0.118245 0.091923 0.0779382 0.115625 0.172124 0.185875 0.174715 0.0788486 0.0886341 0.139181 0.184332 0.115625 0.185875 0.118245 0.0738515 0.214434 0.185875 0.091923 0.118245 0.176526 0.176526 0.115625 0.174715 0.0779382 0.0886341 0.0886341 0.0863829 0.0788486 0.172124 0.142821 
</DataArray>
<DataArray type="Float64" Name="cell variable 8" format="ascii">