<VTKFile type="UnstructuredGrid" version="0.1">
<UnstructuredGrid>
<Piece  NumberOfPoints="    3310" NumberOfCells="    2425">
<Points>
<DataArray type="Float64" NumberOfComponents="3" format="ascii">
14.0204 35.2897 0 
17.0141 14.588 0 
-19.4137 -23.3058 0 
43.6549 20.3889 0 
18.1492 5.60874 0 
-23.6227 2.03911 0 
-31.7327 32.5839 0 
59.8997 24.2651 0 
57.2736 -3.80094 0 
4.0747 -53.1762 0 
28.4228 -1.79269 0 
6.37405 33.587 0 
0.0108209 -63.3121 0 
52.1833 -13.3155 0 
30.4747 29.206 0 
6.22988 -20.9967 0 
-44.3004 38.1785 0 
-13.8641 36.689 0 
-50.8164 26.4966 0 
-48.865 28.5997 0 
-7.71336 57.3634 0 
39.3384 16.4851 0 
56.7853 1.19132 0 
12.733 2.01914 0 
-6.60658 29.3542 0 
-24.2853 23.6519 0 
-16.6091 -23.6064 0 
17.8825 -54.3097 0 
18.3285 -19.8126 0 
-2.41671 -46.29 0 
3.65959 -38.7678 0 
-35.0663 -39.1445 0 
-20.1149 -38.3168 0 
-59.6745 -4.10003 0 
4.19153 -35.3344 0 
-13.5119 -29.2608 0 
-16.3107 52.1796 0 
18.9175 13.768 0 
-10.5178 9.13279 0 
-43.3315 5.89642 0 
-33.7936 -39.9913 0 
-15.4922 -42.1423 0 
-0.728713 -21.1813 0 
-45.468 -23.2949 0 
-26.2356 41.9708 0 
-11.21 47.3033 0 
-24.965 -0.745667 0 
57.3777 10.9764 0 
10.4156 43.7548 0 
-25.0323 24.2988 0 
5.05757 40.6159 0 
-40.868 -21.7447 0 
-52.0268 -19.1888 0 
40.0667 5.60921 0 
-38.0443 30.6056 0 
23.57 45.3698 0 
34.467 39.5525 0 
21.284 20.4142 0 
26.0261 -55.4506 0 
12.8398 -61.4435 0 
-39.8708 45.2413 0 
47.9981 -23.4447 0 
-1.43741 -63.3054 0 
-8.52081 -0.763299 0 
-23.87 50.7733 0 
31.5718 -17.1982 0 
49.6914 -21.5262 0 
47.5855 -37.2855 0 
48.607 -36.5474 0 
-37.8263 24.4871 0 
29.7666 -7.83224 0 
-25.0139 -11.2779 0 
6.90093 -54.9123 0 
-44.7476 25.4363 0 
35.3001 6.25048 0 
39.2678 -5.77453 0 
-57.6948 -20.1548 0 
-37.4612 25.9869 0 
-9.01341 -42.2452 0 
14.9972 2.84044 0 
-7.23711 17.2944 0 
20.7942 31.21 0 
-21.5318 -21.6336 0 
-39.9328 15.4 0 
-1.66624 -16.9216 0 
3.74012 54.5309 0 
26.2875 -12.6372 0 
-54.9354 23.6243 0 
25.9656 30.115 0 
-2.34508 -42.9504 0 
-43.8449 -25.3723 0 
-13.9749 17.9394 0 
47.6198 12.5874 0 
16.0509 25.7104 0 
-46.7448 -19.6623 0 
51.576 16.8048 0 
4.77031 25.1141 0 
6.50497 -48.3337 0 
44.0021 39.1955 0 
-49.9417 3.4375 0 
6.36152 -16.7422 0 
-4.33862 1.86961 0 
-30.2756 49.9652 0 
-30.9201 -9.86514 0 
26.7844 1.72716 0 
-29.3372 -0.480639 0 
31.7229 32.2425 0 
23.2874 -1.71815 0 
45.1752 21.7813 0 
-40.4069 34.2742 0 
-2.57474 -8.0003 0 
-37.2804 26.2577 0 
-15.5893 11.0405 0 
57.7742 -17.3432 0 
35.1405 37.9605 0 
-0.325105 -29.9238 0 
-38.6 45.7001 0 
16.2279 -53.7407 0 
-11.7527 -48.9716 0 
-5.30352 57.6585 0 
18.9156 46.3062 0 
15.6118 -1.3708 0 
-50.6896 27.7349 0 
-2.13158 24.8844 0 
16.9766 -51.3714 0 
-3.30908 -4.76307 0 
-35.0108 -46.1451 0 
37.7435 21.8835 0 
10.3274 12.0226 0 
-57.3413 -9.42661 0 
24.7626 49.8172 0 
-48.0628 -2.6914 0 
23.9958 8.9885 0 
-25.9006 -40.8773 0 
-8.8111 -5.73663 0 
-40.4295 5.40989 0 
-23.0537 -42.2778 0 
18.2254 32.6655 0 
9.33698 18.7249 0 
8.42156 -5.4107 0 
49.0075 -2.63429 0 
-32.262 -51.2843 0 
24.766 47.8979 0 
-13.5486 36.3482 0 
-26.8017 -6.43981 0 
-25.4442 31.1917 0 
11.3245 -36.4174 0 
-52.2565 -23.8854 0 
-55.1596 -4.22843 0 
0.364481 53.5378 0 
37.6966 44.3721 0 
14.3235 -53.1022 0 
-58.4059 -5.66135 0 
22.5697 -34.3438 0 
-43.2287 19.5401 0 
32.3464 21.0625 0 
19.5179 40.2583 0 
42.3456 26.4446 0 
42.9433 33.3742 0 
35.9064 14.2071 0 
-48.7927 -9.02468 0 
-26.7824 -31.9089 0 
42.5492 -1.04733 0 
17.7824 33.1353 0 
-7.27817 -61.4839 0 
47.4826 -14.1126 0 
41.2023 29.1624 0 
38.1942 -39.4001 0 
2.77175 38.0993 0 
6.77707 46.7251 0 
57.4259 15.242 0 
18.9424 23.7285 0 
-44.0076 2.99747 0 
-28.0619 -55.9058 0 
13.2553 -16.2951 0 
-19.7146 42.6482 0 
-30.9627 54.7924 0 
-59.2724 5.76562 0 
23.2841 -40.5572 0 
31.6246 -19.0019 0 
8.31958 -37.1578 0 
2.12563 51.5636 0 
-17.7906 46.7038 0 
-2.61532 9.10561 0 
-24.6736 41.7469 0 
-8.37483 48.6389 0 
31.2445 -31.7766 0 
53.3931 -27.237 0 
23.9155 -23.1885 0 
-18.4686 -33.4159 0 
5.08661 47.6914 0 
31.9541 12.9071 0 
-12.1479 -36.569 0 
-26.378 -15.6694 0 
-58.418 11.3382 0 
38.0497 22.517 0 
13.3673 26.4853 0 
-42.1841 19.4905 0 
7.47925 9.23672 0 
53.3793 -26.3582 0 
13.5054 49.5779 0 
5.93683 59.5327 0 
-30.5392 25.1901 0 
-31.9363 -32.3961 0 
-8.59375 -24.3628 0 
-3.67117 31.2332 0 
-55.1062 -29.5432 0 
46.5968 -37.307 0 
-4.9698 -10.9126 0 
0.519283 -30.2447 0 
-10.7217 -49.7857 0 
-40.594 -41.6492 0 
-21.2624 58.5823 0 
15.5502 -2.20063 0 
14.0299 53.7215 0 
42.9245 -26.5664 0 
6.11912 50.9778 0 
-12.4841 40.2068 0 
-17.8079 27.8599 0 
-10.6239 55.7986 0 
-30.1116 42.0487 0 
-58.3742 6.93877 0 
50.8735 5.43552 0 
-13.3779 15.8493 0 
26.1926 52.2687 0 
35.16 6.64504 0 
36.038 -25.3792 0 
33.3886 35.1226 0 
33.62 -44.6596 0 
-9.58875 49.2961 0 
-4.79146 43.6841 0 
35.6794 -4.61689 0 
-29.4669 7.98985 0 
-39.6849 14.8946 0 
48.2693 -21.1891 0 
-35.6757 5.07721 0 
30.0227 51.8737 0 
-16.7147 15.3679 0 
-51.5087 25.2816 0 
-45.2664 -35.6098 0 
-26.4983 -37.2725 0 
-2.22864 45.4739 0 
-41.2173 -15.2209 0 
15.4885 -2.43597 0 
47.9369 -24.2756 0 
-7.53325 -18.0502 0 
4.48126 26.8115 0 
-12.004 -45.8033 0 
-20.6288 40.0471 0 
-13.0848 -28.4637 0 
-55.6981 0.774959 0 
38.7954 -43.8848 0 
15.9923 15.8315 0 
58.256 -22.6176 0 
16.2208 -45.2762 0 
-19.5245 -50.3501 0 
-38.3712 -31.5284 0 
-9.42423 26.1119 0 
56.8208 -3.19191 0 
-31.4256 -31.2968 0 
-36.1174 -39.0797 0 
12.4776 -15.6645 0 
22.841 28.1545 0 
47.8608 -2.4034 0 
8.39038 -34.852 0 
34.8297 -22.1061 0 
-17.9003 21.595 0 
-29.3963 -45.6651 0 
-16.1833 1.62879 0 
-47.9125 -33.5213 0 
22.8012 -9.35769 0 
-27.3203 -24.7534 0 
-31.0587 -4.84813 0 
35.4093 6.13038 0 
31.4601 20.6444 0 
-0.0978207 -39.6585 0 
-34.6617 -47.9905 0 
24.3079 -3.7355 0 
-23.7822 49.2236 0 
-12.9893 -10.6161 0 
-17.7425 38.2879 0 
10.6733 37.5533 0 
-10.9709 -35.8627 0 
37.8068 -9.77057 0 
19.4084 -13.0687 0 
-18.5278 52.475 0 
52.3845 -2.33778 0 
-56.4091 -19.1517 0 
42.6139 -7.96286 0 
-30.9228 20.815 0 
-39.612 -4.28959 0 
-8.8369 -53.447 0 
-7.15803 36.4895 0 
-37.0887 34.9107 0 
-29.5808 -45.3896 0 
7.33957 6.70022 0 
-24.2607 -56.4568 0 
0.728049 52.3988 0 
-21.9816 29.8638 0 
-10.9045 -59.7666 0 
-15.6828 15.9145 0 
14.6165 40.8294 0 
-14.8427 -59.8342 0 
46.0959 20.0064 0 
-52.6489 16.6493 0 
40.5487 -33.9885 0 
50.3571 8.41786 0 
3.51998 27.6595 0 
18.6997 49.7981 0 
-10.1956 -10.6692 0 
57.1648 15.5444 0 
-18.0828 -2.64236 0 
-60.2332 -0.106387 0 
24.8737 -55.9095 0 
29.7435 -10.4669 0 
-49.532 9.00204 0 
-32.65 26.7582 0 
-11.8565 -27.3178 0 
58.787 -19.5061 0 
39.3796 14.2572 0 
16.8056 43.1718 0 
58.4519 -13.5147 0 
16.6872 -38.7395 0 
46.4203 3.84395 0 
34.1034 43.7455 0 
-1.07592 -5.84582 0 
-19.7388 -16.8628 0 
14.0914 -44.7452 0 
38.0249 21.0153 0 
-50.391 2.49748 0 
34.6615 -23.5667 0 
-39.6212 -4.32879 0 
4.22181 -17.1058 0 
-18.319 43.2231 0 
36.259 52.1077 0 
36.2643 -37.5695 0 
-52.9264 15.857 0 
14.7526 -31.5241 0 
-20.6147 -19.1925 0 
-39.678 32.8813 0 
-9.49515 56.7532 0 
-0.732462 29.0556 0 
34.8358 -23.122 0 
1.80347 38.0484 0 
-13.5388 -59.8786 0 
-34.1058 26.5565 0 
-4.07342 34.5936 0 
1.38813 -19.0245 0 
-16.3078 11.5975 0 
53.3107 17.2897 0 
50.6679 7.53985 0 
-30.6734 11.3893 0 
-28.3174 12.3793 0 
-5.84149 -11.2263 0 
16.0193 -21.6869 0 
-30.4787 44.1139 0 
9.24447 58.2376 0 
-0.108602 53.6815 0 
-11.7433 -26.8736 0 
-19.6979 22.9678 0 
11.1708 -11.6316 0 
4.39405 26.9658 0 
-58.1409 12.9517 0 
-36.5964 11.1362 0 
24.3049 -26.4837 0 
5.67431 33.1414 0 
-52.7756 3.25659 0 
32.9011 45.4135 0 
-37.5859 1.49646 0 
1.97947 -0.949803 0 
-4.94456 -36.3135 0 
34.4893 10.1467 0 
-27.8141 -56 0 
-33.9346 18.9817 0 
7.70024 -36.6778 0 
17.1342 -31.6533 0 
0.925838 44.325 0 
43.7274 7.42291 0 
-19.8919 23.3519 0 
6.01695 -10.248 0 
-41.6375 -5.97134 0 
46.2606 31.148 0 
23.7733 16.3249 0 
21.9002 10.4904 0 
14.8046 -15.1475 0 
-52.0898 31.3662 0 
-19.7653 8.43647 0 
42.3714 -14.3515 0 
-17.8674 59.1488 0 
-14.6095 -18.4552 0 
-49.2465 22.1841 0 
-8.06523 6.7953 0 
15.9116 55.5444 0 
-32.6561 -12.3999 0 
31.803 -16.2524 0 
29.4004 -7.66161 0 
-11.43 9.05985 0 
16.8244 -14.4204 0 
-22.1154 58.0865 0 
-34.7394 -47.7591 0 
-12.0308 30.169 0 
-32.387 -43.9231 0 
-6.20947 38.7795 0 
-21.3786 -58.1275 0 
5.38558 -54.8224 0 
-22.687 -50.7877 0 
-23.4509 29.3021 0 
-44.2474 19.7348 0 
-7.56759 -17.3201 0 
22.1496 37.0166 0 
-41.4351 -30.9524 0 
-9.81623 10.9046 0 
53.1569 34.7193 0 
-47.8672 36.4332 0 
12.3329 7.4197 0 
-27.4138 35.3455 0 
-9.668 -0.177473 0 
0.308276 17.1105 0 
-11.7593 -46.7018 0 
-11.418 -2.62077 0 
27.8282 -46.0599 0 
-3.29972 0.244863 0 
13.199 5.66147 0 
44.3522 22.9428 0 
-30.1233 -37.7559 0 
-4.79171 41.8464 0 
9.05781 -38.1682 0 
-12.4353 -18.3036 0 
-46.4732 37.4728 0 
14.7381 25.4311 0 
30.9782 -50.6518 0 
31.6067 5.71636 0 
-0.896131 17.5505 0 
-17.665 16.075 0 
-37.8537 -2.17804 0 
28.3253 -35.032 0 
-14.2758 -2.25477 0 
10.7384 -10.8367 0 
-43.0869 -7.10721 0 
-57.2164 9.60292 0 
-19.0076 -32.5726 0 
9.81846 -53.4431 0 
13.0221 33.3187 0 
11.8996 -32.2697 0 
36.4465 -37.191 0 
-45.1066 -37.4084 0 
-20.8524 -13.5205 0 
-2.58235 -35.4051 0 
-20.2959 -31.9022 0 
-0.280129 17.915 0 
-31.1956 -8.92953 0 
48.1931 -22.1762 0 
-52.0621 -11.0143 0 
-37.0522 -22.8573 0 
44.8404 39.3474 0 
34.2506 -38.2938 0 
30.2266 -51.1716 0 
24.4156 -35.2482 0 
28.2996 -1.41978 0 
30.6805 18.4197 0 
-50.4117 -5.06382 0 
-47.1507 -33.7831 0 
57.0499 31.9491 0 
-0.339759 27.125 0 
-0.782913 39.6192 0 
22.8042 -41.2399 0 
-0.0883723 3.39454 0 
50.5999 24.6615 0 
47.9561 12.1574 0 
26.0224 9.83113 0 
-53.7904 -20.1371 0 
2.34758 11.9571 0 
27.7759 -44.8991 0 
19.4222 23.2209 0 
18.7282 -5.9926 0 
-15.3829 -36.3301 0 
-2.76185 -38.3597 0 
-16.9667 28.7852 0 
26.5615 -29.3326 0 
5.16814 40.9594 0 
40.8622 41.3953 0 
-8.65373 7.73535 0 
23.3776 -34.3655 0 
-19.2484 -10.1147 0 
5.10574 -59.2234 0 
-14.2515 -9.48905 0 
-12.7406 -11.642 0 
47.8964 -11.3122 0 
9.10466 -23.5508 0 
-14.972 -43.4811 0 
37.2193 4.62019 0 
-48.3655 -28.5106 0 
-5.0361 57.6475 0 
[...]
<CellData Scalars="wall variable 0">
<DataArray type="Float64" Name="wall length" format="ascii">
1.86073 10.9737 1.03774 0.188714 11.2071 0.378564 0.220854 4.17441 0.656277 5.52327 1.24826 9.22711 3.64419 6.39757 0.85903 1.06832 1.85163 3.56383 3.62367 3.66783 8.50098 0.388741 1.37114 3.02532 2.9426 2.6121 0.813384 1.13837 3.77684 1.0304 4.91519 2.01718 3.27652 0.864865 9.31483 2.74194 0.965669 3.34235 3.76244 6.34686 0.42148 5.44144 2.89521 1.50271 2.51989 0.763283 8.35582 3.2514 5.34739 1.85871 2.72562 0.864865 0.591146 4.83126 0.366603 6.88165 3.77905 0.357686 3.28799 6.68954 1.55943 2.05105 2.11238 1.94213 0.681324 4.70231 5.38535 0.465444 1.30621 7.30555 0.445925 2.09801 1.3633 7.40098 1.02478 1.29181 3.83999 0.723345 5.73794 1.65661 3.10513 4.02178 1.92238 1.78305 8.53701 0.344099 1.35239 10.6439 0.981147 2.28658 5.12999 4.65312 2.06055 2.15729 2.12809 0.653023 6.65179 0.0587923 2.78047 5.81717 1.64065 4.73204 0.0309523 2.56005 6.93379 0.619092 2.08192 0.772035 8.69906 0.723084 4.14878 0.472535 5.09669 0.718968 2.49242 9.21656 1.86062 2.71423 0.81871 5.25993 3.22927 0.322195 8.91001 1.42046 1.56669 2.23015 0.984535 2.12935 1.69047 0.14881 8.00363 0.911862 8.11543 0.816049 3.22903 3.1291 2.55826 3.55497 4.46519 4.48494 3.41206 1.67378 2.98652 1.85381 2.45 1.12484 1.08325 3.14182 0.989411 6.03054 1.51686 1.30764 0.989411 4.39864 5.67146 0.357999 1.047 9.05214 3.90325 2.97037 0.923841 5.23038 6.42919 0.41521 3.45962 6.85941 0.444131 1.77075 8.50098 1.66186 5.69194 5.19701 3.53623 4.23737 1.29708 5.44205 4.06477 0.331221 4.37905 8.17856 0.363604 3.27468 7.18951 4.94001 5.77738 3.24667 9.83292 1.34896 9.18335 0.518369 3.3715 2.85605 2.75859 3.2341 1.20827 0.892461 4.80101 5.68827 0.613054 1.42046 3.88531 2.74464 7.22002 1.08325 2.05739 3.63183 1.57993 2.20263 0.461184 7.03244 3.73515 6.70488 2.57226 0.511352 1.91327 2.62206 5.38534 0.723345 0.999844 1.99177 2.11458 6.31079 0.12199 13.9735 0.753848 0.640691 5.09967 6.72943 0.242346 2.15847 1.08804 1.58518 2.24032 0.0309523 0.278224 4.8298 2.4673 0.665034 6.05012 0.182523 4.11588 5.17041 1.23213 3.48885 7.37585 2.14942 6.43097 5.09669 4.99656 1.15897 9.94791 1.2916 0.827364 2.31656 5.57152 3.68412 0.109736 0.973357 2.31535 0.518369 0.374516 4.16341 1.07536 1.99521 6.34259 3.63065 0.415119 1.23601 6.98722 1.11048 9.16805 0.555922 2.89737 4.04813 3.02677 0.736002 7.01429 0.474912 5.76593 5.70828 6.4843 1.0343 3.48885 2.21504 3.73283 5.87278 2.61095 1.64065 5.55475 0.901119 2.14861 5.34935 2.20412 9.61121 4.6041 7.91942 1.0639 2.39079 5.43156 0.242346 6.32516 2.57775 1.04728 1.75879 6.63478 3.84859 0.474912 4.35063 1.40449 1.80756 2.62206 2.44832 4.98625 5.08182 2.98749 4.83126 1.04489 3.07671 3.73585 4.17571 2.15774 4.08308 8.87908 8.12182 1.30504 7.17224 2.57233 4.16003 0.681324 3.0278 0.624285 0.357999 2.98904 1.38526 3.77341 5.0775 11.3185 3.64225 1.57887 1.28741 1.50669 4.06477 4.71413 5.40952 3.47805 0.73693 0.66796 7.16311 1.77075 6.75577 0.0616635 7.25047 1.02478 0.132857 0.84124 2.63161 0.388741 0.959906 8.81802 1.22985 1.14151 6.48098 2.29375 1.58196 1.17574 8.99219 3.76532 5.44144 3.47805 0.792193 1.50212 4.71409 2.47288 7.28942 1.12497 8.64246 1.85119 7.91942 3.16322 0.816049 7.14649 7.83264 0.236644 2.71888 2.04471 0.949611 5.05198 5.09829 0.980291 5.30398 1.03308 9.91811 1.99177 8.10263 1.11107 2.21517 4.05925 0.346221 1.88363 3.5562 5.6459 4.65227 1.00588 0.542995 10.3577 1.21866 1.56509 0.786052 11.6355 0.287398 0.727157 1.67235 0.665034 4.57031 2.11515 1.55252 9.02796 1.6589 4.70538 5.62223 1.91708 0.220854 5.47713 2.27097 2.38583 0.968485 4.59437 0.535103 0.709602 5.3689 0.362359 9.7638 1.54568 1.54134 2.11458 9.91811 2.5261 7.41277 1.43527 1.36098 0.867966 8.29475 1.20104 3.27652 6.47429 3.59232 0.472376 2.9036 3.30995 3.51914 0.399582 0.951364 3.22491 1.36098 6.59609 3.00355 4.59627 1.35595 0.88062 2.29823 7.48933 3.00979 3.21726 2.12809 1.33626 3.0939 6.7707 3.3063 6.27053 1.38402 3.0929 0.511352 2.28559 4.17405 2.21517 1.29188 3.72905 1.88866 5.12999 0.260075 6.32182 5.38183 0.23318 9.38316 1.87718 1.65661 5.86784 3.6112 7.94297 5.59904 2.6121 2.9036 2.62649 4.38222 0.56372 5.25668 3.31268 4.01367 1.434 13.9735 3.39367 2.87649 2.22034 0.895816 3.55497 6.63226 2.32045 11.3002 2.23015 10.4176 0.309938 10.087 2.57775 2.98357 3.36476 0.205513 1.80668 3.84859 0.427427 6.68954 0.165845 1.77712 5.76593 3.36476 4.66515 5.09967 4.44947 1.89794 11.5606 0.999251 11.6355 0.360381 0.867867 1.29698 4.04613 0.916014 8.08089 4.55914 3.59039 4.72388 3.23714 0.81871 3.53876 1.31461 0.363604 4.30183 5.65407 1.30621 7.48507 0.498456 3.5562 4.47034 0.923841 0.92988 2.24117 5.97931 4.11678 1.14151 1.13775 0.968485 1.39878 1.34236 2.21393 3.87344 4.71754 5.09829 4.16632 0.984535 11.3002 0.702592 1.48408 6.03054 1.30764 3.27509 4.48299 2.31656 1.88932 3.01634 0.344099 2.31246 3.79354 2.74065 5.91429 8.02442 5.08182 0.692545 4.77667 0.84124 4.5678 6.58889 0.536935 3.73515 1.80756 0.516264 6.93713 3.41856 0.861835 0.0587923 0.358521 8.17774 0.339808 3.47735 3.29585 0.815809 3.91654 0.432825 5.14511 5.4111 0.297952 3.02762 1.86073 1.91708 5.33861 3.58507 1.9789 0.66796 7.72981 0.634896 6.74459 8.10263 0.999844 3.83999 7.36964 1.11107 7.36964 1.29181 2.10704 6.46376 0.830953 1.29188 6.71256 3.04628 3.61062 1.54107 6.93379 2.0258 1.28299 1.21558 3.6112 1.50082 0.580432 2.74194 7.37999 4.94014 8.58275 1.58518 3.54871 0.549555 1.01028 6.71256 2.56005 2.24032 8.58275 2.78927 3.50992 1.24468 3.36618 1.76283 4.48494 3.51914 0.486518 1.66647 2.32314 3.56337 6.93176 1.08883 0.287398 0.999251 0.650944 2.0377 3.16272 3.36296 1.82977 7.83264 3.38875 7.06601 0.205513 4.44947 0.640691 2.22493 2.59706 0.621154 5.87869 1.28793 1.38526 1.02869 2.86807 3.24667 2.31535 0.257489 6.26447 6.48098 4.11678 5.72256 0.784403 5.35451 11.3185 0.584832 2.17101 4.69292 0.697295 1.85381 10.0879 1.71187 0.980868 5.30689 6.30442 0.230992 2.5761 5.33352 1.14005 4.85175 5.1756 3.45047 3.193 3.05118 1.80171 4.95043 6.97596 4.86421 1.29711 0.319339 5.17863 4.25092 6.18968 2.72446 5.87366 1.12609 3.02762 5.66674 2.64459 0.869271 10.9737 0.970958 12.8812 1.28741 1.65517 11.0172 1.61128 1.35239 3.01634 2.84769 3.3063 7.45636 2.01907 0.92988 2.97037 0.736346 3.76405 0.706583 1.56746 5.74474 5.50936 1.57093 0.791254 1.20104 0.153931 3.74879 3.61107 3.1368 0.882033 1.71183 7.37999 9.31483 2.72562 5.57152 4.48299 4.10643 0.445008 5.97595 1.04325 5.2738 4.40412 1.2916 4.76176 1.98264 1.50351 2.83576 6.20792 1.23601 1.41953 2.67092 0.75704 4.51367 2.76038 1.67254 0.913672 6.51962 8.81802 2.86807 8.61033 2.20263 1.69247 9.83292 5.72256 3.87344 0.930233 7.53654 1.72402 0.472376 9.23594 2.67092 6.80941 0.898197 2.62649 4.71409 1.78832 2.39079 4.29346 6.01184 3.49594 5.65626 3.37473 6.53892 1.8474 5.6459 0.498456 3.7938 0.41521 3.66783 4.24963 4.02302 3.05994 0.358521 6.65179 4.40653 1.95911 0.75835 0.409535 6.85811 3.82993 8.27905 0.472535 6.54644 1.93992 1.20284 3.94047 4.99656 2.38869 7.90267 2.77258 8.04693 0.867867 7.08569 5.49589 3.71657 2.37121 1.06713 7.22002 1.2213 3.64225 1.6956 5.70409 0.797553 0.726675 2.74328 5.6615 4.87548 11.2657 0.339634 7.48933 2.40397 0.589225 5.25141 3.29585 3.22491 8.14166 0.736346 3.90325 2.69114 0.867966 0.257489 6.34259 2.73496 1.45995 0.614702 6.92264 0.680917 1.59683 8.08256 2.41526 8.99219 2.85639 0.326438 4.75396 4.23737 1.31516 3.41856 2.7728 1.25872 9.16805 0.998025 1.21069 5.65626 0.904365 2.38869 1.0209 5.67146 4.16473 0.461184 8.61033 1.02869 2.98904 0.132857 7.40098 1.36762 4.5678 1.40449 8.02442 3.69764 7.09599 0.75835 0.622087 1.24826 4.72568 3.12666 2.90812 6.46376 1.56289 2.64459 5.61536 0.290347 5.76125 2.44832 1.91327 3.0929 1.14612 4.85775 1.54107 6.29553 3.38838 0.547623 4.6382 0.619092 0.82486 7.16078 0.723408 3.77684 5.64258 0.16926 5.23038 4.47034 1.88363 8.58048 0.460121 0.612868 7.08945 2.05105 2.4602 8.8047 2.32232 5.1756 3.78319 1.12497 1.01144 2.54665 2.30574 3.71657 0.468359 5.4111 3.49871 7.79164 1.50271 7.8062 0.817323 0.727157 4.03316 2.98652 1.88991 4.59437 1.13775 1.22985 6.51962 7.86877 0.444131 7.42369 0.769783 4.59994 0.568496 6.75577 6.34686 5.21261 0.150017 0.949611 0.663418 4.4961 1.04489 0.591146 0.699488 11.1122 0.83151 2.98564 8.19222 1.34236 3.30086 5.53074 0.445925 3.72105 0.891474 2.17765 1.80694 3.63183 3.57095 3.61107 7.70677 0.584832 5.0775 8.43028 2.72267 2.07425 3.20783 3.65072 5.87366 1.63945 3.64419 4.76042 0.696702 6.76675 3.62898 5.33994 4.43672 2.47288 6.01184 3.00482 5.4565 1.66671 6.70709 3.77684 2.05825 0.309938 0.805683 9.61121 2.02007 2.82312 0.67112 3.77684 0.341053 3.06479 4.72388 3.61062 1.35897 3.69868 1.45552 6.29553 4.41728 1.65525 2.1817 3.56337 1.09776 4.70538 1.52093 0.547623 5.65655 1.33626 2.15729 6.74579 1.85746 7.41514 2.74934 1.45081 1.75879 4.63908 3.67357 2.50597 6.06599 4.76176 9.94791 4.00914 3.00355 0.339634 3.47735 2.49568 7.41277 0.882033 7.39267 2.45 0.230992 1.14572 5.24351 0.588535 4.98515 6.80941 1.41953 0.415119 6.24028 1.0268 8.0066 1.92238 3.19438 2.43197 3.82116 1.1509 3.51064 6.59609 1.43527 2.49568 0.339808 3.00515 0.791254 7.39659 4.59627 4.00914 2.5261 2.69114 6.42919 0.16926 1.07779 2.91385 0.153931 8.29475 0.663418 5.30398 6.7997 0.363762 9.29486 1.07779 8.58048 0.346221 3.66844 8.0983 2.691 0.63941 4.39182 0.692545 4.98625 5.76125 4.65961 0.614702 2.46055 2.7728 6.93713 5.88386 1.5421 3.58507 1.30584 6.76675 0.19887 5.2516 5.30689 1.0813 3.21075 4.67591 3.28799 8.73059 0.455075 8.87908 1.17577 0.165845 0.520595 4.68803 0.699772 7.42369 6.85941 2.96047 6.10445 3.39367 2.6502 2.8599 0.0616635 0.568496 11.0579 0.845124 1.65525 2.26149 0.978182 7.18951 0.809697 0.349015 2.52164 4.17685 1.59683 2.61725 0.718968 6.43097 4.08072 4.90856 2.85639 2.46055 1.45995 1.29711 8.05751 0.965669 0.580432 1.32512 2.24139 8.50493 1.71183 1.85871 5.64162 0.56372 0.12199 8.55362 2.0258 5.57659 7.05198 5.87869 0.589225 6.9032 4.12969 4.8298 1.92791 0.349015 2.14942 3.94047 0.293559 5.17041 4.88657 7.36274 1.58196 0.210744 1.29896 0.54199 4.87548 4.29178 5.1774 9.7638 1.38196 0.755011 6.3448 2.52164 4.88657 4.11588 4.57485 0.539234 3.03161 7.63464 0.85903 7.48451 2.15028 1.64161 1.97569 1.03194 4.04613 3.42204 6.48893 4.49208 7.07705 2.8599 1.22779 3.50691 1.88684 1.63539 0.212741 1.90278 1.46296 1.11967 2.72267 1.67879 7.97276 3.47695 6.77522 2.20494 1.15767 2.96344 5.57659 0.621154 6.92264 4.65961 0.516264 0.704952 1.98284 0.536935 1.94364 0.652765 0.71478 2.97747 1.49438 3.37269 0.759107 6.70488 4.59994 5.57432 1.56746 1.81728 11.0579 0.18401 0.634896 3.48336 5.4565 0.919768 2.82312 8.33341 4.14878 2.06672 0.955814 4.31426 6.54644 2.86327 5.60939 3.24026 0.652765 5.42848 1.36762 1.3633 1.02457 5.42848 1.94364 6.58889 5.25993 3.23714 3.06479 7.55415 4.31649 4.85775 4.05586 1.66186 4.75396 0.820548 5.30245 1.14572 6.30442 5.2516 0.630196 2.6502 6.63226 2.55826 4.85372 2.83298 0.575432 0.0684061 1.22779 3.9549 4.24963 2.9426 2.77892 2.96513 1.07536 1.96519 6.31079 1.54134 0.856098 1.18629 0.142422 0.970958 3.04079 2.24139 4.55914 1.14703 3.72905 0.830953 2.90812 0.617513 7.08569 2.57016 4.29178 5.6615 2.80196 3.37269 5.52327 5.49412 2.96077 4.72568 4.5146 4.76042 3.62367 3.62244 2.0377 4.16003 5.90571 2.11515 0.864974 4.70231 1.07523 2.99254 0.542995 1.08883 7.14649 8.11543 3.68481 1.48162 2.61163 4.94316 1.31461 4.14607 3.78319 4.85175 1.60932 2.74934 0.525363 8.64246 0.424407 7.97276 1.03493 0.704952 8.17774 3.05994 7.04909 4.65227 1.8474 3.9549 4.16341 6.19414 0.856098 1.54568 5.1774 1.18909 5.88607 0.121775 8.44131 1.85746 2.21975 4.76624 3.69764 2.79705 0.322195 1.64064 8.40578 3.05118 1.03179 1.48162 10.7346 1.32512 1.50082 5.86784 5.73794 5.38534 1.96519 0.432825 4.88629 3.80353 1.55223 0.916014 1.03194 5.89787 5.38245 4.14607 3.53876 2.71423 2.07906 2.41357 1.74886 2.22034 3.68103 2.30574 5.85285 2.57233 0.752314 1.99585 3.50992 0.864009 1.55252 5.90571 2.18256 1.43078 5.12819 1.0304 0.723408 3.2844 2.21504 1.23213 0.293559 1.20284 3.27509 9.05214 3.18675 4.10643 2.97033 5.25668 5.64162 5.34739 3.00515 5.14511 5.89787 1.97569 2.8932 2.05825 0.67112 0.919768 3.00482 4.29346 1.04728 10.087 3.54871 6.05012 1.67235 0.817323 2.01666 1.62416 1.12424 0.612868 4.98224 5.24351 5.30245 3.26075 1.36053 6.7707 0.566448 5.64258 1.13837 4.56303 1.22062 0.547047 4.49208 5.20865 2.20599 6.88165 5.30337 5.11824 3.38617 2.07425 1.11967 4.64247 2.24117 2.01907 5.55381 4.68803 3.07455 8.91001 2.79705 3.12666 2.96077 0.845544 1.0639 1.85119 0.525363 7.41514 8.44131 4.05586 1.14612 1.38402 2.91655 0.799604 1.39799 5.69194 1.8748 7.26918 2.16651 7.9857 2.45319 6.19363 1.07523 0.911862 0.895816 1.74886 7.21837 1.28961 0.445008 3.18675 1.047 0.624285 5.35451 7.63644 3.22927 7.55415 0.341053 6.70709 2.20412 0.845544 0.121775 1.34896 1.69247 1.57993 1.80694 0.800224 3.66844 4.05925 4.29904 5.04973 0.767314 6.77491 1.64161 5.22951 6.37025 0.891202 2.30185 2.31246 8.53701 0.879189 2.49773 7.49844 0.422913 0.792193 5.40952 1.89601 1.57025 0.188714 4.85372 3.1291 4.27578 5.17415 1.23953 1.64064 1.373 3.5534 4.17441 1.71857 2.88262 3.30086 2.57588 5.87278 2.37237 3.32532 3.69868 5.19701 1.39799 3.52843 0.901119 2.53041 4.8268 5.1918 4.80101 4.18514 3.58798 0.955814 1.49029 4.30183 5.77738 0.602653 8.92032 1.6236 0.911319 5.85285 2.54665 2.71422 3.38875 3.4804 1.0127 2.5761 2.32232 3.68103 2.87649 6.10445 5.65655 3.38838 1.45552 3.32532 2.16017 0.82486 0.566448 3.0939 3.62898 1.30584 6.74459 0.18401 0.630153 2.61163 1.03179 3.193 0.762967 0.971476 5.17863 2.83616 1.65517 1.57887 1.2213 2.74464 1.62416 1.0128 8.08256 4.17685 0.539234 8.50987 4.03316 9.02796 0.864009 2.78927 4.46519 5.65407 1.6236 1.29046 3.72105 7.30555 1.78832 1.50212 0.422913 3.69213 1.69773 2.15847 5.43156 3.76244 3.75289 1.69047 5.18003 5.21261 3.58798 5.78469 2.18256 1.93992 4.31426 0.621211 7.94297 1.21558 8.52116 3.4365 0.73693 7.28942 1.66671 3.48336 7.72981 2.84769 1.88932 3.99196 2.91655 6.27053 2.88262 1.25737 0.560624 2.86327 1.02457 2.09801 5.53074 0.820548 9.7581 2.11238 7.08945 3.26075 2.99254 6.19363 2.56811 10.3577 3.88531 8.00363 0.622667 6.97596 0.971476 5.61354 3.4804 2.59706 5.25182 5.67789 1.20827 2.02576 4.91519 5.12819 3.27468 7.48507 0.465444 7.25047 0.809697 1.373 10.7346 3.68481 5.38245 2.53436 0.800224 7.70677 3.74879 2.91385 8.0983 2.56811 7.21837 2.41357 0.911319 5.61354 1.44226 1.21866 1.7672 4.95043 4.58056 2.34604 0.979177 2.16651 0.94398 5.36202 3.31268 2.97033 3.2514 2.98749 2.61616 7.63644 0.697295 0.687582 1.55407 4.15204 2.86499 0.790788 11.2657 0.54199 0.765674 10.6439 1.61128 2.50682 7.01429 5.84377 3.21075 0.596906 0.610247 0.260075 6.82251 0.75704 9.23594 3.59232 2.8932 6.48893 2.16172 0.486518 3.30995 3.51064 0.610247 1.93836 2.75859 1.34055 0.203383 1.05932 2.41974 6.32182 0.541264 9.68851 0.109736 4.77254 2.86499 4.30859 0.547047 3.50518 5.33352 1.0127 2.96047 7.07705 4.42675 6.37025 1.78305 8.0066 1.8748 4.22647 5.47713 0.378564 0.0417893 4.43672 2.2415 1.49438 8.8193 2.76038 0.959906 7.36274 2.57016 2.71422 1.01144 3.16322 4.6041 0.805683 1.80668 7.06601 1.45081 1.60932 1.14005 3.50518 1.22062 0.366603 0.427427 6.63478 4.01309 3.83508 5.11152 0.638559 11.1122 1.51686 1.48408 0.827364 4.40412 4.39985 10.0879 4.09625 0.360381 0.786052 3.59631 4.01367 5.36202 5.24532 0.581291 4.38222 0.898197 4.98515 1.47611 1.15767 3.45742 4.80266 5.24532 2.20494 2.85474 2.17101 3.20783 3.38617 1.68757 1.9719 6.25374 0.38969 3.49871 5.33861 5.62223 1.09776 2.32314 0.699772 5.55381 5.74474 5.57432 0.769783 1.44226 5.25182 2.22493 0.753848 1.434 3.59631 1.56509 4.58121 5.3689 1.61103 2.21975 3.67357 0.630153 8.33341 2.02007 3.59039 4.94316 1.89601 7.16311 1.9789 1.5421 6.04299 1.99521 2.96513 5.77302 2.68853 4.08072 2.73496 4.67591 5.84377 0.736002 2.34611 1.30504 7.11941 2.01718 2.02576 3.2341 1.93836 0.596906 6.47429 4.86421 0.622667 0.14881 3.75289 3.34235 8.05751 0.142422 2.84642 2.72839 2.77258 2.92002 0.331221 1.50669 12.8812 1.63158 5.70828 1.77712 1.17577 4.08308 5.91663 3.77341 1.28793 7.05198 1.98284 1.03493 1.67879 8.43028 4.76624 1.61103 0.709602 4.08214 0.409535 7.09599 2.72839 9.25641 1.71511 1.0209 8.04693 8.92032 4.97938 2.34604 4.68497 0.891474 1.29046 3.56383 8.13495 0.823345 3.16272 3.62244 0.630196 0.19887 7.11941 3.0278 1.94213 9.7581 5.49589 0.617513 5.61536 5.66674 0.297952 0.468359 0.602653 4.94001 0.978182 2.5213 7.9857 0.979177 4.97938 1.95271 1.12609 3.65072 4.5146 0.650944 11.5606 2.61915 10.4176 1.56669 0.613054 1.5221 6.2707 1.06295 5.93655 0.210744 2.29375 6.26447 3.73266 1.37114 2.63161 4.77667 4.39182 8.08095 1.18909 6.3448 5.54239 0.794591 3.45742 2.75513 2.68853 0.780602 2.691 0.290347 4.31649 0.326438 4.90856 1.14703 8.08089 1.55223 0.5856 2.83076 4.65312 1.88866 2.33883 3.73585 5.67494 1.58777 0.317368 6.18968 1.38196 0.362359 1.03308 4.17405 2.28658 3.21726 6.30223 2.16017 2.37237 3.73283 3.2844 7.16078 4.09769 3.74614 5.50936 0.588535 4.98224 0.460121 1.28299 8.55362 1.08804 1.69773 0.463467 8.52116 9.18335 4.29904 1.00588 7.04909 0.374516 1.71857 9.22711 0.622087 1.95911 2.21208 6.70578 1.25737 4.09769 8.8047 2.16616 0.88062 5.05437 1.16201 5.91663 2.15774 0.51617 4.01309 0.699488 1.39878 2.38583 3.14182 7.03244 4.16473 4.39864 2.45319 2.5213 2.26149 4.41728 1.6589 4.22647 4.60895 5.22951 2.15028 2.13334 1.58777 0.792579 0.363762 5.81717 5.55241 2.53041 5.55475 1.58875 7.37585 1.0343 2.57588 1.35897 3.04628 1.01028 4.4961 9.29486 0.792579 5.67494 3.07671 1.57093 3.74614 5.05437 1.35595 7.39659 2.83616 0.319339 8.50493 3.04079 11.0172 3.46692 2.49242 2.61725 0.680917 1.17574 0.42148 1.45269 8.85355 4.12969 0.934796 5.38535 0.864974 4.57031 2.4673 2.40397 2.29823 2.16616 2.4602 1.55943 0.934796 6.9032 2.2415 5.33994 0.762967 3.45047 1.7672 7.26918 0.399582 6.93176 2.1817 0.845124 1.81728 0.706583 7.55876 0.150017 5.18003 2.12935 4.16632 5.05198 6.7997 0.980291 4.71754 1.45002 5.04973 4.60895 1.12424 8.50987 4.57485 0.182523 1.58875 0.549555 4.94014 5.24116 6.74579 2.06055 2.83076 4.69292 6.25374 0.958834 0.836881 6.54029 0.687582 4.63908 4.35063 6.4843 1.63158 1.16201 2.27097 4.58121 0.535103 7.86877 0.913672 1.39807 6.85811 4.08214 2.84642 1.18629 6.19414 0.38645 3.47695 0.708304 9.25641 2.98357 6.32516 6.72943 4.66515 3.02532 8.08095 0.63941 0.780602 5.77302 2.77892 0.904365 3.49594 0.395041 4.37905 2.92002 7.90267 3.1368 3.57095 2.05739 1.12484 7.39267 0.656277 3.5534 2.53436 2.07906 1.86062 3.07455 5.49412 0.794591 1.11772 4.56303 0.813384 5.59904 0.581291 4.80266 3.10513 1.87718 0.621211 3.14898 2.49773 5.57885 2.37121 7.79164 0.38969 1.66647 2.16172 3.42204 1.29698 3.91654 3.38327 0.772035 5.21797 4.88629 3.68412 5.97595 1.28961 2.61616 4.77254 0.790788 7.45636 2.28559 2.57226 0.759107 2.80196 2.74328 1.47611 6.24028 3.63065 1.25872 1.71511 0.708304 2.96344 3.14898 3.4365 0.463467 3.69213 7.49844 2.97747 3.83891 3.82993 1.39807 1.67254 8.8193 2.34611 3.02677 2.8848 1.3433 1.5457 0.752314 7.17224 4.18514 0.892461 5.67789 1.43078 5.78469 0.5856 3.80353 5.21797 2.08192 4.6382 1.52093 5.24116 3.53623 4.8268 5.55241 2.78047 0.861835 1.31516 0.755011 6.30223 3.00979 1.36053 1.11772 5.54239 4.68497 4.58056 1.80171 8.40578 1.23953 2.17765 2.89521 3.76532 2.41526 1.0128 2.01666 7.8062 3.99196 5.91429 0.89488 3.06471 2.14861 3.52843 0.799604 4.02178 5.57885 0.879189 1.03774 0.869271 1.56289 2.10704 0.38645 5.88607 2.75513 2.85474 6.77522 0.94398 4.17571 2.33883 4.25092 1.95271 1.89794 4.09625 1.63945 2.72446 0.317368 2.13334 7.48451 6.39757 0.278224 8.69906 3.38327 0.815809 5.25141 1.92791 0.758394 1.40142 4.51367 6.82251 9.38316 1.00603 0.951364 7.55876 3.76405 8.14166 0.560624 6.70578 5.8423 5.60939 2.21208 8.27905 3.83891 0.71478 3.24026 5.8423 3.7938 5.97931 4.64247 0.520595 3.45962 0.0417893 11.2071 1.57025 6.04299 5.88386 0.696702 4.60055 0.337354 2.99277 1.71187 4.39985 5.2738 7.74538 3.19438 0.981147 0.765674 1.29896 5.93655 5.97517 
</DataArray>
<DataArray type="Float64" Name="wall variable 0" format="ascii">