<VTKFile type="UnstructuredGrid" version="0.1">
<UnstructuredGrid>
<Piece  NumberOfPoints="    3363" NumberOfCells="    2471">
<Points>
<DataArray type="Float64" NumberOfComponents="3" format="ascii">
-36.045 43.5915 0 
10.8657 9.70936 0 
-11.9122 -13.9967 0 
22.8147 -36.181 0 
-61.536 -1.61976 0 
-47.1828 22.1193 0 
11.4088 -54.0516 0 
37.5935 15.9296 0 
35.7504 -2.49427 0 
1.99409 -33.758 0 
17.1217 -1.52873 0 
-4.12008 -42.8433 0 
-17.9092 52.2318 0 
34.8201 -31.3236 0 
17.8843 17.7331 0 
-13.666 -53.8557 0 
-26.7161 23.1557 0 
-7.91432 22.4874 0 
-37.4955 -48.2334 0 
40.4551 -23.8674 0 
-4.97707 35.365 0 
50.9013 -27.537 0 
34.6718 -0.244523 0 
7.36607 0.711798 0 
1.54258 -39.5924 0 
-15.4836 14.7195 0 
-32.8755 -40.5644 0 
-17.6275 39.2993 0 
-59.3665 -5.12619 0 
-0.179308 -27.9992 0 
2.02348 -23.5524 0 
-20.7841 -24.7244 0 
-27.3823 42.1918 0 
-37.0844 -2.52223 0 
-36.4737 -18.5745 0 
-15.5432 -53.4493 0 
-17.2361 45.2349 0 
40.3473 19.5484 0 
-7.17528 5.67745 0 
13.7511 -59.6015 0 
-20.3618 -25.4698 0 
-57.7768 -14.3509 0 
-0.489885 -13.253 0 
-15.1824 -47.378 0 
40.1547 11.9602 0 
-6.82054 29.7819 0 
-15.8563 -0.957204 0 
-35.2982 41.9641 0 
6.98603 27.0403 0 
-5.28829 -55.1492 0 
61.3539 -7.87299 0 
-1.14288 -39.9234 0 
-32.3543 -11.8505 0 
25.3642 3.05571 0 
-32.4768 -30.745 0 
-55.6412 8.81553 0 
21.8637 23.3348 0 
28.2997 33.0687 0 
17.0458 -34.3699 0 
7.42426 54.2182 0 
-33.6184 41.8041 0 
-45.1734 0.73135 0 
-6.36954 -55.5747 0 
50.5931 8.46289 0 
-14.1984 31.1242 0 
-17.1802 -42.7658 0 
30.9035 39.8182 0 
-31.1132 -47.7013 0 
30.686 -22.593 0 
-23.2102 15.7555 0 
18.6172 -5.10179 0 
-22.4191 47.6712 0 
28.7957 -45.5913 0 
45.4342 -16.5102 0 
22.9131 3.49903 0 
23.9714 -4.21617 0 
31.7398 -35.2002 0 
-41.0267 -41.9075 0 
-38.509 39.9446 0 
44.8944 14.747 0 
-44.1453 0.0807742 0 
12.115 19.7656 0 
-13.21 -13.3595 0 
-17.9848 -54.9764 0 
-42.159 20.7582 0 
1.12987 33.9099 0 
39.6416 13.4684 0 
-33.9394 14.115 0 
-59.6317 11.1863 0 
-48.5387 -12.6122 0 
2.65916 -62.1594 0 
-37.3359 -36.9144 0 
30.7416 42.0391 0 
9.2556 16.2701 0 
42.8502 -23.9995 0 
30.3482 27.8841 0 
39.5562 -3.02712 0 
-28.5461 52.5625 0 
50.6772 22.4195 0 
14.8518 -45.9883 0 
8.95434 -38.4725 0 
43.2793 -6.6654 0 
-19.1792 31.004 0 
-19.6712 -5.89567 0 
42.3919 -4.73367 0 
-18.2825 -0.853271 0 
-22.6436 -48.8052 0 
40.9707 -3.54234 0 
22.4674 -40.3509 0 
52.0566 -15.4448 0 
9.39355 -54.9538 0 
-22.75 16.3512 0 
36.9947 28.433 0 
36.6646 -10.6164 0 
20.8859 -48.8629 0 
-0.38644 -18.8255 0 
-41.7531 -38.6346 0 
9.79451 -32.8273 0 
-7.23468 -30.229 0 
51.0249 -6.79139 0 
41.1186 9.52365 0 
9.28945 -0.994274 0 
-32.2151 16.641 0 
-0.810322 16.1234 0 
32.2015 -38.0897 0 
8.09878 -55.8098 0 
-20.9555 -28.2213 0 
23.6863 14.215 0 
-56.982 -20.4998 0 
-53.8455 18.3341 0 
28.6339 -51.6563 0 
-29.7321 -2.14598 0 
14.4235 6.2315 0 
-16.4414 -24.3675 0 
49.8883 -29.6139 0 
12.6368 -59.7176 0 
44.2719 -7.81304 0 
45.372 -37.9654 0 
6.86857 11.4552 0 
-52.4036 -3.70564 0 
22.8738 35.9934 0 
-38.9862 8.02464 0 
15.3576 30.4242 0 
-7.70281 22.3244 0 
-43.579 9.30204 0 
3.89935 43.0285 0 
26.1672 52.2163 0 
30.9264 -35.0492 0 
-33.896 -3.29142 0 
17.5162 56.1952 0 
22.8328 26.6583 0 
53.3066 16.2728 0 
-36.1759 -3.20328 0 
14.3601 -21.513 0 
37.718 -44.519 0 
28.8406 47.9734 0 
11.511 25.5677 0 
26.193 16.4434 0 
-32.7246 27.6718 0 
10.7357 47.9119 0 
-29.9512 -5.09707 0 
-17.066 -19.4991 0 
-43.0429 -23.6964 0 
18.7992 -40.86 0 
47.5628 13.4195 0 
29.7738 -9.41077 0 
32.8495 44.7152 0 
23.221 -24.2526 0 
2.13029 24.1605 0 
-23.0731 -34.0027 0 
35.4336 9.8479 0 
-35.6699 21.8468 0 
-46.222 19.7018 0 
-16.745 -35.1935 0 
8.01793 -10.8399 0 
-12.6849 25.8683 0 
-18.815 34.3763 0 
-36.6189 4.31079 0 
31.4177 39.1504 0 
19.1986 -11.3302 0 
-35.7467 32.0025 0 
-54.819 -26.9846 0 
-37.3686 -27.1596 0 
-3.16033 5.51641 0 
-15.1743 25.6206 0 
29.6958 -28.58 0 
-49.0245 12.8254 0 
14.589 39.6449 0 
13.8989 -13.446 0 
-37.3069 -17.4434 0 
32.4733 -38.4729 0 
21.3371 7.80851 0 
-53.8482 18.9154 0 
-52.6093 -5.90285 0 
-35.9949 7.11552 0 
41.0746 -24.3168 0 
7.87871 16.3488 0 
-25.6216 13.2062 0 
4.65408 6.97271 0 
-22.9393 55.0701 0 
-14.0402 58.7691 0 
40.0392 -3.53197 0 
-19.5302 15.1943 0 
15.0461 40.4248 0 
-17.48 -42.7615 0 
-1.87779 19.6671 0 
34.2122 -33.8135 0 
-18.6825 48.0572 0 
-2.44877 -6.80322 0 
-49.5332 24.5091 0 
-6.90379 -30.7783 0 
-26.1404 -43.1526 0 
-12.6573 36.5006 0 
13.6179 -54.3059 0 
8.73336 33.2778 0 
39.2513 -31.1403 0 
-44.0785 37.9635 0 
-5.50755 53.8262 0 
50.4467 -1.86975 0 
-6.30564 34.8638 0 
-18.5301 25.8914 0 
-36.0365 4.94195 0 
-11.4133 50.8767 0 
38.9016 26.621 0 
16.1566 33.0826 0 
24.3181 -42.6542 0 
39.2197 32.4646 0 
37.4191 -24.914 0 
-41.602 -12.6552 0 
-6.47913 31.0537 0 
-3.01179 26.9382 0 
21.7535 -3.1633 0 
-40.2698 30.3664 0 
0.965186 -53.0706 0 
32.8902 -47.7457 0 
26.8512 -51.9528 0 
18.4075 32.8169 0 
-11.2429 8.825 0 
-32.3463 15.3387 0 
-28.0577 -22.3641 0 
-51.6967 -8.05531 0 
-2.0705 28.3856 0 
-25.2594 -9.2212 0 
-52.187 -2.4154 0 
29.701 -14.8813 0 
-42.5411 20.4442 0 
2.42 16.8758 0 
-7.12231 -28.7255 0 
-12.8222 24.4456 0 
-37.669 38.1059 0 
-13.1362 -59.1165 0 
23.0373 -27.1331 0 
-47.8646 -24.6655 0 
35.9455 -14.1509 0 
9.38578 -27.4306 0 
-12.0213 -31.0461 0 
-40.0193 -8.33361 0 
13.6326 -40.7956 0 
35.3271 -2.4225 0 
-19.618 -18.6028 0 
-27.7187 -42.5886 0 
-48.9705 -35.132 0 
-34.8978 21.8533 0 
28.8065 -1.82184 0 
4.50096 -21.9395 0 
20.5013 -13.5915 0 
-11.8895 12.348 0 
0.321789 56.6207 0 
16.73 -54.3279 0 
36.3932 -18.9771 0 
-17.2451 35.7465 0 
-22.7442 -34.8384 0 
-32.5749 -49.6516 0 
52.9781 26.9477 0 
20.5719 12.4394 0 
38.7645 39.2056 0 
-21.0594 -29.2209 0 
-33.3038 27.4776 0 
-25.2195 -52.1445 0 
-7.81177 -6.36767 0 
13.4089 48.9921 0 
-47.2583 0.708067 0 
-13.6327 54.2624 0 
19.7886 -49.2812 0 
0.646576 -59.4464 0 
39.0016 46.4463 0 
-10.2312 51.0591 0 
11.8459 42.9089 0 
18.6258 -45.6713 0 
52.2389 7.8755 0 
-40.5574 -17.8286 0 
-6.05892 -32.7824 0 
-4.10991 22.7649 0 
-22.4425 20.5199 0 
61.9797 8.21469 0 
55.0554 -10.8489 0 
-14.3717 -34.9251 0 
-0.657891 32.8004 0 
14.8022 48.708 0 
-6.95134 -36.9235 0 
12.5941 58.3102 0 
9.12917 25.7597 0 
-9.12064 -37.7401 0 
-9.01326 57.4421 0 
5.1416 53.963 0 
-21.868 47.7246 0 
9.73583 40.2954 0 
1.96578 17.2619 0 
43.5609 28.5624 0 
27.865 31.7864 0 
2.70066 46.7269 0 
-11.119 44.0636 0 
-55.2377 4.83222 0 
16.2661 -34.2987 0 
18.5859 -6.33482 0 
-57.599 0.831814 0 
-20.6088 15.9274 0 
-7.35457 -16.6705 0 
36.484 -12.2914 0 
44.0373 -42.8812 0 
29.8702 -27.7562 0 
36.9495 -8.19205 0 
-4.53969 51.3431 0 
28.7927 2.32348 0 
6.72095 -45.0916 0 
-44.4358 42.996 0 
-12.4281 -10.2974 0 
8.36776 -27.0852 0 
22.5558 -37.1006 0 
-30.9842 0.856965 0 
20.6272 -14.3385 0 
-45.1374 -37.5071 0 
-47.9271 -36.714 0 
-30.2252 -31.6988 0 
22.7763 32.3761 0 
22.2849 -23.0734 0 
60.5313 -17.5076 0 
-50.8135 11.1068 0 
-52.0229 -7.7079 0 
-23.6997 19.4681 0 
-51.146 32.6397 0 
-36.6145 -34.5264 0 
25.3395 -46.8467 0 
52.6883 8.34066 0 
50.4314 36.2968 0 
14.4925 48.7098 0 
-2.34677 21.6176 0 
42.5559 -18.7482 0 
-10.6665 6.96874 0 
32.2688 9.59288 0 
-36.6414 40.6823 0 
-16.4658 -43.0609 0 
-18.3153 6.95612 0 
-2.98806 -6.78506 0 
8.71444 -13.6963 0 
-23.6883 40.6404 0 
-49.7164 27.0704 0 
45.9884 -37.6043 0 
-54.2867 16.1 0 
16.2821 -36.8912 0 
-0.069721 -47.9774 0 
-10.2125 -53.8071 0 
-47.9456 -8.21867 0 
-23.4409 7.33625 0 
-53.1523 -9.83559 0 
4.00931 20.0606 0 
-10.0431 42.8002 0 
51.4794 33.9696 0 
59.2393 21.3306 0 
0.65251 -0.724999 0 
-2.22677 -22.8606 0 
-22.9301 -55.469 0 
-0.453567 56.3073 0 
15.0032 36.2792 0 
4.05133 -22.7823 0 
-41.2475 -39.8668 0 
37.481 -42.817 0 
0.388808 -40.1066 0 
-12.7313 13.8551 0 
3.74599 -6.73149 0 
33.0763 32.3594 0 
-30.2892 29.4851 0 
15.3514 10.0787 0 
13.6561 7.52364 0 
8.84518 -10.2092 0 
-32.6835 18.8779 0 
44.2102 27.2864 0 
44.8885 -7.83006 0 
-10.6611 37.2333 0 
-33.2234 40.215 0 
61.1383 -17.0615 0 
-5.94761 4.46299 0 
9.9957 34.1498 0 
59.2604 -2.01344 0 
19.6436 -9.92652 0 
-43.1602 2.38049 0 
-54.8131 -27.9396 0 
-36.0269 -22.5082 0 
-13.07 36.1547 0 
54.1978 -6.04564 0 
41.8584 -30.3875 0 
-19.4733 -27.3309 0 
52.9296 -24.8346 0 
-58.4502 19.9303 0 
2.28102 -34.6765 0 
-56.105 0.843323 0 
33.4701 44.797 0 
-26.7244 13.0939 0 
-6.34694 -45.0524 0 
12.8541 23.558 0 
-42.5435 12.9831 0 
39.5706 28.7437 0 
32.7947 21.1805 0 
-29.3209 21.9283 0 
-46.4695 19.2335 0 
-30.5885 -49.7406 0 
-6.55934 0.484897 0 
0.0254534 10.3412 0 
-49.7668 -9.01654 0 
41.8628 -36.9046 0 
-35.7451 -43.8643 0 
22.4968 39.3577 0 
-46.6092 -37.702 0 
26.8117 14.8882 0 
49.0764 20.6985 0 
53.9603 10.8707 0 
-43.0686 -28.0974 0 
-6.78403 -11.5706 0 
-40.7094 31.5265 0 
8.6863 15.9693 0 
19.908 -31.8423 0 
37.4364 35.4435 0 
-47.6711 14.7894 0 
-11.6609 9.24789 0 
-23.4296 -1.14088 0 
17.0147 -22.3535 0 
2.01011 -61.4216 0 
6.78589 -7.43055 0 
-23.5031 35.8978 0 
46.0027 1.3231 0 
-12.6314 -20.642 0 
55.0233 4.10817 0 
-43.244 -33.2657 0 
48.3605 9.26959 0 
-42.4659 37.8199 0 
-27.8963 -23.305 0 
19.5638 54.0994 0 
-29.7925 -26.3054 0 
-13.3751 -20.5153 0 
41.7688 20.614 0 
-41.8157 -17.2448 0 
53.2373 -7.17386 0 
-24.2014 48.3867 0 
1.95748 41.9973 0 
-14.4845 -53.3606 0 
21.337 -23.1707 0 
19.5613 -32.0575 0 
14.9797 -22.2073 0 
-5.97883 -44.407 0 
20.2333 11.2232 0 
-39.9992 -12.2547 0 
-29.0158 -21.4857 0 
37.8007 47.0412 0 
-26.2077 34.0887 0 
-48.3504 14.3476 0 
13.588 -25.7746 0 
16.075 39.2149 0 
36.3402 46.8526 0 
30.2191 28.3786 0 
58.8571 22.0464 0 
-33.3345 -12.1671 0 
8.58805 -55.8398 0 
17.0432 -28.4008 0 
11.7255 15.3532 0 
12.1541 -2.90339 0 
-9.92814 -22.2697 0 
-1.11458 -23.7522 0 
42.5231 -29.4155 0 
16.5718 -18.6644 0 
3.76462 25.5866 0 
14.9221 39.1887 0 
-19.9932 54.8588 0 
14.6782 -21.6286 0 
-11.2471 -6.39904 0 
12.7561 -52.182 0 
-8.47034 -5.88304 0 
-14.8024 -48.5718 0 
30.0058 -7.98373 0 
5.72047 -14.5675 0 
-8.70129 -27.4484 0 
23.8887 2.59495 0 
-30.5681 -18.0763 0 
-3.72358 35.3657 0 
[...]
<CellData Scalars="wall variable 0">
<DataArray type="Float64" Name="wall length" format="ascii">
1.04571 6.44163 2.17278 5.45591 2.30334 3.85275 1.06137 2.38332 3.12002 0.651209 3.60069 1.13565 6.31979 3.51458 6.95082 1.69131 1.22406 6.51964 5.13754 3.31473 5.13265 1.35601 2.68051 0.510903 7.13039 1.20505 3.31998 4.56939 1.66928 2.11268 3.59974 3.32623 0.737025 2.7238 7.97329 3.46934 0.542206 0.935598 6.6545 5.62629 2.92948 5.53696 3.53148 5.3276 2.11268 0.26901 6.51354 1.05583 1.27406 1.21148 1.35919 2.27307 6.11835 3.87079 0.710477 2.94517 2.0125 0.309705 2.78485 4.59598 0.60273 6.56292 1.16771 0.823319 3.39659 0.692416 4.35836 4.98364 1.90455 2.91253 2.99462 0.168126 7.44824 0.551186 8.83996 1.83546 1.43724 0.801599 8.17843 2.63833 1.17781 3.86615 1.17316 0.639946 2.30134 5.54858 3.07556 6.46469 2.34981 4.52862 0.549053 1.24736 4.15487 2.98829 3.33446 0.232367 6.87202 0.995562 6.17452 1.64609 0.449066 2.60571 3.3958 2.80772 1.42099 2.20521 0.400612 3.56617 3.23035 1.94347 6.78293 1.76037 1.50862 0.707372 4.52862 2.09787 1.45582 8.16365 2.09787 2.34981 3.97393 0.93036 1.98352 7.48293 1.93179 6.50855 2.25509 0.695425 5.99862 0.905329 0.192385 2.67937 5.46442 1.20179 2.16507 1.69754 9.77367 3.51241 6.15148 5.27403 1.13565 2.32076 1.59477 4.23778 0.680602 1.13306 2.41358 0.941635 1.91203 6.15826 2.13294 4.40783 0.576936 1.42574 3.60484 6.96616 0.77752 6.78293 2.56881 2.12859 7.85812 1.04212 2.99708 4.50519 0.99422 1.97112 2.75299 9.61573 2.47831 6.06694 2.09562 1.3386 5.40186 2.56881 1.94347 2.59222 4.33571 5.0142 4.97628 4.35473 2.96248 3.17331 1.23066 1.4301 1.78942 6.50261 3.5041 4.19802 4.77775 2.98018 1.77327 7.5344 1.04586 10.6118 0.959714 7.66791 0.692416 0.50145 3.70886 0.412139 2.84026 1.90658 1.83128 2.34642 10.6118 1.81076 1.54877 7.77753 1.72721 0.780841 1.15987 4.6604 0.960224 1.07137 2.34999 2.58448 8.29533 0.242009 9.1857 1.28674 8.44993 0.499319 1.8648 0.934969 7.5344 6.35301 5.69672 0.179704 6.82856 1.31708 2.47831 1.90494 0.493106 4.32363 0.724183 2.48579 3.92079 3.9806 0.452146 1.20179 7.16203 1.57405 0.400328 3.59335 5.73682 3.58132 7.68101 4.19219 2.22692 3.80921 3.93757 0.997785 3.18855 3.28995 5.91092 1.97112 1.30879 6.00215 3.27943 4.32363 4.07238 5.17733 6.85899 3.17331 0.21431 1.31708 1.34679 3.19338 3.27228 1.50276 6.06694 7.77753 6.61145 1.27169 4.54419 0.569992 7.21526 2.40882 1.17559 2.87636 4.96096 0.758872 11.0457 0.955166 1.17559 0.809652 8.2293 0.914316 2.06683 7.16946 5.3943 0.9738 1.06137 5.24443 1.77237 0.66927 6.7443 2.1414 3.63482 5.43667 2.54733 5.01728 2.92948 0.510965 1.67691 8.39787 4.36627 8.21896 6.55388 1.04525 4.19802 1.25412 2.97947 1.37463 8.9826 3.93637 6.2402 2.90988 3.61093 0.401253 0.932013 6.39851 3.76062 0.394591 3.55018 3.3958 1.49905 2.46021 6.19591 2.53829 3.92079 1.58464 1.52585 3.56617 6.91294 1.90494 5.40186 0.628371 3.88168 7.17941 4.1915 1.12222 0.838057 1.02673 9.01762 1.74245 2.657 6.21168 3.72546 2.39495 5.20993 2.97069 0.914316 7.99595 2.08847 7.6352 0.770543 1.51933 1.21457 4.96096 1.45582 7.48293 0.983098 1.03293 3.51565 1.00965 1.59964 2.58448 4.69386 5.25934 2.74957 3.85511 1.17316 0.780496 6.74533 0.80159 3.3439 7.26555 2.36477 8.32318 1.40426 2.36727 9.29768 4.48676 5.21187 6.21168 2.1468 1.06513 3.09039 1.03569 2.56797 3.25542 6.50855 3.26259 6.4555 0.315946 2.55267 4.39639 1.62554 2.00412 2.64727 10.228 1.51933 10.2027 1.17692 0.333788 0.991073 4.41811 1.91151 1.59477 1.40171 6.46869 0.998772 6.0019 3.33446 5.05768 5.71376 1.76673 0.885499 2.84343 3.44498 0.476729 2.15908 6.63485 2.04473 1.25996 2.91769 1.6563 3.09018 5.72559 1.50862 7.76792 3.91455 0.49691 4.90768 5.81635 6.08159 1.37115 4.98364 1.43601 4.30018 4.50519 8.71799 1.86449 10.2346 1.05583 8.54195 1.52585 4.2378 3.64956 4.68069 0.67927 5.40493 3.79825 3.60521 4.44332 2.1468 2.657 1.14338 2.98205 1.29638 7.68666 1.86424 2.98205 5.2474 7.90319 2.99462 5.74767 4.91385 3.00909 2.81316 3.03838 2.94517 4.37875 1.04895 0.876977 6.76726 2.75512 9.12198 2.35427 0.392137 5.84005 0.681596 1.70668 2.83445 4.33571 1.23302 4.65469 5.83466 0.695425 0.212649 6.97748 1.98042 0.551186 0.38029 0.716872 1.12222 6.35579 1.68602 0.390472 1.37473 7.90319 0.582831 4.90768 1.89997 1.8648 0.530239 0.21431 2.96248 5.307 3.59673 0.399971 9.73807 2.02449 5.54858 4.58611 0.634157 2.26135 1.41248 0.499533 6.88847 0.768674 2.39495 3.81159 0.809652 2.40882 4.99087 4.78274 0.595016 6.25015 6.56292 4.68069 4.99309 1.39166 4.53122 0.618297 1.27406 4.6077 5.16386 5.26807 3.12664 2.76395 0.316209 3.75561 3.63193 3.62356 1.86258 9.12198 1.01342 6.35301 1.77327 2.76895 0.463985 1.07104 8.9748 1.30725 0.780663 3.15572 3.41036 1.24705 4.36955 6.17452 5.61835 2.90329 0.471442 4.35836 7.66791 2.97268 1.38757 1.21148 0.618297 4.93496 1.24705 5.56903 1.31782 6.96616 1.03162 0.914544 5.45591 3.165 0.620396 1.41248 5.94326 1.95453 1.78973 2.77661 7.01082 0.41798 8.33766 0.678103 0.772957 4.44684 3.09018 3.49496 0.950102 4.77775 1.04525 1.76207 1.4875 0.36233 0.493815 9.33074 1.68144 4.49423 0.792263 0.580358 4.33201 8.33766 0.639946 7.26555 0.60542 4.79386 4.25929 0.473606 4.15122 4.62739 5.36225 7.77048 1.45153 4.21116 1.03162 3.60484 7.3363 3.31379 6.63754 2.90953 0.719457 1.02928 6.92143 2.9468 1.36045 1.03569 1.26798 5.30148 0.596538 6.90574 5.51595 6.30359 0.398857 3.31379 1.09325 2.60225 1.76207 8.9826 2.16345 3.04198 6.0805 5.24443 6.31979 5.27403 0.586834 0.648115 2.97194 4.78787 0.616323 2.08847 2.87636 0.955166 3.01506 3.09939 7.24911 6.21008 5.2658 0.617918 8.29532 6.35579 4.1915 0.468629 0.333788 0.508784 4.16168 0.192385 1.71728 0.77023 6.91992 5.61396 0.452146 8.12914 1.03447 4.97427 0.866573 2.64402 0.555373 2.16507 2.29247 8.44993 2.29685 3.98073 3.03558 1.85519 1.64609 4.36955 4.93496 4.53122 6.57843 5.83466 1.75678 0.383219 3.09939 3.23987 5.99862 0.665544 8.39787 3.70869 0.77062 1.69131 4.29537 4.35877 0.315946 2.77218 5.14611 0.964778 5.62125 3.09537 7.10156 1.99756 3.30957 3.55296 1.80133 0.154632 7.73326 2.27491 3.56496 5.71376 2.20313 7.82198 0.597223 1.95424 5.96237 1.91203 0.465818 9.73807 2.41473 0.637318 1.42937 7.21848 2.35074 6.70538 4.35433 0.251845 7.78976 1.1163 6.97565 0.648178 4.85141 3.12691 2.46654 3.9806 2.53829 4.00251 1.8214 8.12914 1.82018 4.6604 3.94944 1.45884 5.68734 4.82844 5.95273 1.24305 2.74089 1.65224 2.51773 0.659349 0.28576 4.22057 7.52528 9.66685 1.40829 6.38143 3.12664 0.22784 0.913117 0.861114 9.4808 3.99494 0.727716 2.76395 6.38143 4.68938 2.78968 4.73143 4.39914 3.49496 1.6563 0.304771 6.72702 2.6181 3.45249 5.43667 6.81848 2.41482 3.24588 6.97565 0.872072 6.87202 0.599926 4.16898 2.28036 4.15227 0.401253 8.18172 0.864921 1.10417 4.31631 0.426562 3.26226 1.06513 7.68666 2.21547 1.81565 0.991073 4.69308 0.267019 1.73519 2.6181 3.08089 3.55296 6.95827 4.0161 4.58611 2.30134 0.473606 7.4914 2.96348 3.50114 0.876977 4.75139 0.392137 7.00416 3.43918 9.36418 0.38029 8.17843 1.96527 5.21275 3.86764 2.95377 1.78973 0.453612 5.69234 2.39255 3.26259 1.37008 3.00181 4.06622 4.28393 2.42585 5.44123 1.23358 0.998772 3.56496 3.34869 6.85899 1.39059 3.73859 1.53931 5.56694 2.17109 1.23066 3.87638 6.02005 2.94817 8.39415 3.3718 6.49736 1.19649 0.66927 3.45249 1.73519 0.509538 1.71728 9.77367 1.0131 2.00371 0.845821 7.52528 0.581462 4.41873 6.55544 0.960224 1.82018 6.33611 2.34246 0.603528 1.00164 2.94686 3.79486 0.491911 0.569992 1.21457 10.228 4.622 1.13083 5.17676 0.586834 6.15148 1.84222 4.28791 5.61835 0.959714 1.49381 0.549017 2.94817 5.90071 1.9105 4.54718 6.97283 3.39223 7.16043 4.32467 3.4585 2.15908 2.4083 6.65848 4.22921 2.44644 1.40426 1.23302 2.59222 3.23035 0.628371 1.3386 4.17326 3.81253 0.616323 3.33172 3.41871 3.55075 0.554203 7.6352 0.873918 2.32076 3.60069 4.45111 6.97748 3.09039 1.93179 1.14462 6.6545 0.776438 0.783871 5.88923 1.26798 0.990052 4.86322 2.34246 2.64727 0.468629 7.17941 4.78274 0.60273 0.471442 1.18735 1.35601 6.05275 4.2566 0.26901 7.97329 2.24944 0.841447 3.62356 3.10697 0.510965 2.80326 7.7389 1.00637 1.95424 5.24343 0.617918 2.3093 0.50145 3.39659 0.407504 1.7026 1.59832 2.32994 6.13447 0.390472 0.428868 5.285 2.20313 0.941635 2.31982 0.380098 9.3184 6.91992 6.86142 1.15011 3.2573 0.992613 1.94619 2.06303 1.03293 4.77639 4.29537 6.95082 0.742525 5.01079 5.33788 3.73478 1.39798 4.44332 3.81159 7.99595 8.2293 2.71484 4.89934 2.38515 1.07104 1.77361 0.68775 3.79825 1.78376 6.9669 4.23778 1.91151 2.72199 2.51466 3.37716 0.861114 6.24408 4.82826 2.90988 1.25735 8.16365 1.59964 4.81909 5.16687 1.96112 6.11835 5.94762 1.04212 1.14731 2.46654 0.414161 7.3363 1.42574 1.43274 1.17822 7.68101 3.66129 6.10338 5.90071 1.39008 2.17934 0.59779 3.92078 1.96527 1.95453 3.33246 0.453612 6.06196 0.555373 8.81509 1.42729 0.59779 0.0680398 6.91578 1.0131 1.69754 0.75194 7.78976 0.902652 1.44892 0.892541 4.44365 2.22333 1.48574 1.03416 6.72255 1.90964 1.89743 2.6116 1.39059 5.17733 3.33246 5.94326 2.26135 3.30676 5.69234 3.92078 1.42729 2.82321 3.35009 5.21275 0.0680398 6.06196 4.06622 1.49724 0.462215 4.22921 1.77401 3.70869 1.67691 3.10697 3.63193 6.26296 6.49162 0.947461 4.34359 6.25148 0.0193315 8.29533 3.85511 2.5331 2.50977 6.84737 0.170816 4.11332 0.809353 5.16444 2.72545 0.69285 6.24069 3.54036 2.55267 4.35877 0.980452 6.54423 1.39008 6.97283 0.50816 5.16687 3.95031 1.72397 0.881823 2.62382 4.48676 0.267019 2.27247 0.985797 8.21896 6.0805 4.09861 0.66246 5.97071 1.4875 5.63208 5.78786 3.41871 2.38101 0.595016 4.2566 4.81554 1.37008 2.00412 0.536695 4.83484 3.23244 6.09519 1.42937 3.61407 5.16444 2.29247 6.398 0.582067 2.21547 1.29638 1.86424 1.37473 0.499319 4.97358 2.24944 2.7238 1.64634 7.10156 0.174511 7.27584 3.59974 5.3276 0.987584 0.758872 1.25412 3.5041 3.35964 3.19338 1.10844 0.830852 9.16086 2.9468 1.01676 3.86764 3.35009 3.403 5.2886 6.21968 1.85519 2.52887 0.903342 5.143 6.398 1.64448 1.90658 7.00087 0.838057 0.716872 9.36418 1.05188 5.5577 5.44123 0.839297 3.99494 4.31831 6.59147 0.558947 1.73977 0.193712 7.16946 2.79887 2.37349 6.24069 3.01314 1.24305 0.799452 6.51964 0.0193315 7.76253 5.52616 2.90953 3.86738 0.780841 1.81565 0.582067 5.143 5.29425 2.72199 4.41811 5.81635 0.582831 5.2474 1.14338 1.74245 7.78784 0.549053 0.707372 5.84005 4.75139 1.04895 8.06181 1.15011 6.22684 0.28576 0.217132 2.36477 0.504563 3.53682 5.0172 1.50104 6.76726 3.50114 1.11991 6.49162 1.15863 0.480294 9.4808 3.37716 0.262328 6.39672 2.81661 0.495171 4.85141 3.0226 4.00251 6.19591 2.28942 4.62744 3.25533 1.02928 0.56997 4.1034 0.578369 1.5721 1.03447 1.8214 3.0226 0.648178 3.24588 7.99786 3.59673 2.66104 3.55275 6.86294 2.99708 5.94762 2.27307 1.65762 1.82585 8.71799 0.399971 6.86294 0.395226 6.44163 2.19944 2.41473 1.32684 5.25934 6.01847 1.77154 6.31342 4.45627 1.46271 0.341795 0.634121 5.63208 1.11039 0.443834 3.97393 6.46469 0.504563 9.29768 3.40952 5.13754 1.6139 1.67074 3.28995 5.18363 2.31982 2.41358 2.74982 1.38829 0.69285 5.47075 5.10941 2.74089 3.01314 0.193712 9.01989 5.35112 5.3943 3.234 6.67084 2.18436 1.86055 4.56939 4.44365 4.53807 1.77361 0.463985 7.82616 4.31228 1.96781 4.96966 2.29914 1.70668 2.25509 3.25542 0.212649 9.3184 2.8437 4.622 3.51241 0.873918 4.65469 3.81253 6.9998 0.595752 1.75678 4.56505 5.56903 3.41036 4.40211 3.2573 5.0172 1.44682 3.87638 0.42665 1.81076 1.04586 0.934969 1.05452 2.51773 6.26133 2.30334 0.914544 4.21116 0.561341 1.68545 6.40884 0.31804 0.80159 6.77644 4.86889 2.73873 8.87139 2.74982 1.13306 7.81541 1.48667 1.59832 8.3812 0.606863 9.04354 0.60542 3.3439 0.31804 0.439286 1.99756 1.64634 0.737025 3.7637 5.11355 5.57679 4.66077 3.165 2.17278 0.395226 3.55275 0.809739 1.2447 9.04354 1.5204 6.88847 1.62724 1.43601 7.44824 1.44426 0.965365 2.01351 1.81173 5.51595 1.1285 1.99052 3.98452 3.86805 0.67927 1.39798 8.54278 6.7281 0.747526 6.63485 3.4585 0.751902 0.578369 4.59662 0.959758 4.15122 0.474087 1.0354 7.13039 1.94134 1.90455 1.37115 2.97577 1.12913 0.493815 1.96631 5.77607 0.892541 6.67945 1.16835 0.742525 3.60521 0.68775 4.53807 2.81316 8.8322 8.40095 1.44426 0.168126 2.01351 11.2983 1.46673 3.75042 4.41873 1.02116 1.32689 3.22993 4.59598 4.76289 2.35074 2.47591 2.81085 6.49117 1.17781 0.686331 2.13354 3.39223 0.476729 2.62382 4.17259 0.778223 2.93143 3.72546 5.21187 0.99422 10.2346 1.4332 7.64784 3.66314 0.427183 1.30879 5.11822 2.11093 2.88372 4.71704 5.01079 1.16835 3.79486 6.74451 1.62724 0.499533 6.52056 1.37936 2.5331 2.74957 1.32684 0.343466 1.32354 1.18938 7.73326 6.61145 1.54877 0.42665 8.39415 0.549017 2.52208 2.9732 3.86805 0.919162 2.30576 1.78936 2.71484 5.40493 1.65224 5.10941 1.20218 3.85275 6.26133 1.66722 2.8048 2.67937 4.16168 0.460013 4.73143 0.491911 6.52056 4.99087 7.21526 0.715837 7.42285 0.199735 1.78376 5.29425 0.903342 6.27707 2.44552 5.69708 1.92249 0.262328 2.51466 6.2402 1.81836 6.32335 2.50977 1.37936 0.154632 5.05768 2.98829 0.965365 8.40095 0.935288 1.54183 1.38783 1.24451 11.2983 3.63482 6.34864 2.32695 4.34359 0.890959 0.304771 2.05735 5.36225 1.05861 2.47004 9.1857 1.76037 1.25735 0.50816 4.54718 0.66179 4.15388 7.76792 1.05452 5.69672 1.01342 3.31227 4.49423 2.99699 0.992613 0.56997 0.719457 5.52616 1.5287 1.35136 1.76673 0.747526 7.40304 1.16771 6.25015 4.83484 12.461 5.80985 1.11039 2.38101 3.33172 4.78787 0.710681 6.16716 6.84737 6.32335 2.13354 7.52313 3.72914 0.638949 7.16043 0.403673 6.54423 1.71283 5.20993 0.768674 1.5204 0.606863 1.86162 0.756033 7.00416 2.35427 1.86258 0.841447 4.97358 3.09537 2.34999 3.94158 1.05787 6.01847 4.69386 3.25026 1.45381 4.30018 1.1285 2.60225 4.24964 0.542206 1.92371 5.72559 4.44684 4.1808 1.54055 4.93454 0.634526 0.809739 2.66104 5.307 4.35473 1.78936 4.82545 6.26154 4.89934 4.1034 7.40304 6.7281 1.56451 2.28213 3.7637 3.32623 7.27584 1.89743 1.70721 0.932013 3.26226 2.87658 5.3746 0.309705 3.8793 1.8081 6.72255 5.53405 1.81716 0.341795 3.07556 7.78784 9.01762 5.2886 1.81311 0.866573 5.10481 1.96781 3.24139 0.615258 2.54733 0.665544 4.77639 0.983098 1.98352 8.66264 0.474087 7.77048 2.05735 0.242009 1.89997 0.49691 8.11054 0.170816 6.16716 4.31881 0.807672 1.5287 7.76253 3.88774 7.5653 3.07445 4.82844 0.902652 0.251845 6.61459 2.2908 0.696899 0.879288 2.11093 5.19453 4.69308 6.46869 1.27621 1.96131 2.27247 1.58596 2.00371 6.91578 1.77401 6.65848 1.44892 5.19453 5.11822 6.67945 2.91253 1.94134 4.0807 3.47635 1.05077 5.74767 5.01728 0.615258 2.12904 4.77574 5.53696 3.75042 1.40992 3.94158 1.07137 6.55544 7.1549 3.27228 3.35964 6.50261 6.17241 0.724922 3.59335 9.7197 2.26853 2.84343 4.49088 2.29552 5.6394 3.61093 4.82826 2.05168 8.18172 4.31881 0.710681 1.81836 4.15487 6.78354 2.91769 6.56133 0.724183 3.36817 1.66722 2.78968 0.634121 1.81716 1.02673 2.93143 1.79732 3.55075 5.78786 1.98042 4.45111 0.651209 3.59471 8.83996 1.86449 1.82585 5.86739 1.5598 4.58409 1.4332 0.449066 6.57843 1.39166 1.99179 1.54055 5.96 2.78485 5.53405 1.03416 4.07238 0.530239 0.465818 4.76289 3.55018 4.54619 6.20645 2.80772 0.580358 3.48678 4.82545 2.30576 4.61306 6.43964 1.0116 0.711129 3.234 3.31998 1.78517 0.66179 1.9105 6.10338 2.9633 8.79732 2.06674 4.46578 4.31831 0.494273 4.91852 4.86889 2.68001 0.618657 2.81085 3.44498 2.26853 6.92143 3.25533 5.63256 0.776438 0.935598 4.24964 1.09325 0.672942 9.33074 1.12913 1.60842 0.761003 7.24911 0.383219 0.595752 2.39255 3.30676 0.634157 4.0161 0.446358 2.77218 6.4555 3.00181 4.81554 6.05275 5.13265 5.87241 1.49724 2.12904 8.66264 0.93036 0.443834 5.80985 2.97194 1.15834 0.794191 3.23244 0.809353 0.891076 0.316209 2.75512 2.23591 5.90093 0.394591 4.68578 1.99052 0.329319 1.37681 3.59537 4.54619 1.71283 0.980452 5.62125 3.85088 1.56451 0.174511 2.06683 2.97069 3.53682 1.67074 4.35946 1.84222 6.02005 1.44682 5.10481 4.97427 1.5721 1.5508 2.18195 4.96966 0.711129 3.1438 6.17241 0.678212 2.23658 6.67084 6.33611 5.68734 5.23921 1.02116 2.06674 2.02292 10.5702 2.52383 2.2908 0.955872 4.6644 2.7402 5.90093 3.28138 3.87079 3.22993 0.672942 6.9998 4.17326 2.09562 1.50276 7.1549 1.78942 0.950102 2.72545 3.61407 0.637318 2.19944 1.04571 1.20218 5.47075 1.60842 2.97577 6.08159 1.45381 8.44811 0.823319 12.461 0.536695 1.62554 6.34454 5.35073 0.407504 3.07445 0.343781 3.51565 2.06303 3.51458 0.799452 5.95273 0.678103 4.33201 6.43964 1.02752 6.39851 0.988458 0.446358 7.4914 4.25929 0.798296 5.14611 0.828468 2.29552 2.73581 4.15227 1.54892 6.49736 0.681596 8.06181 4.37875 0.710477 3.28138 2.23591 5.68977 1.15988 1.11809 1.22117 2.9633 6.82324 1.72721 4.54419 4.15567 0.759297 2.26421 0.413819 1.48574 2.3688 1.81173 1.32689 5.23921 1.45884 3.60667 6.30359 2.68001 6.77644 6.74533 5.94072 2.12859 5.0142 2.83445 2.29914 2.18195 1.70128 3.31227 8.9748 2.38515 6.26154 3.48678 0.792263 2.1414 0.642463 6.39672 1.92249 1.07603 6.34864 0.761003 8.44811 3.25026 3.46934 0.848444 6.21008 1.0354 8.11054 3.91455 4.15388 1.78517 1.20505 2.64402 1.81311 3.403 2.82321 8.81509 1.14731 9.61573 2.06773 2.20521 0.77752 0.389264 6.81848 1.1163 0.217132 9.66685 0.845821 1.58596 2.4083 8.32318 2.93661 5.36336 6.13447 4.27562 1.00164 2.6116 5.3746 0.941603 4.02715 3.73859 1.17692 10.8358 4.17259 0.881823 4.36627 0.312727 2.80326 0.508784 1.02752 4.61306 0.919162 3.98452 4.68578 3.76062 2.26421 7.37986 2.38332 0.9738 5.35112 0.951837 0.77062 6.26296 3.75561 0.891076 4.11332 2.37349 1.22406 1.3333 3.95031 4.81909 1.00965 0.343781 7.5653 0.596538 5.308 3.05592 2.28942 0.751902 4.32467 0.638949 1.62723 1.15863 6.25148 2.32695 1.07603 5.69708 0.649376 1.48673 2.7402 2.47591 7.21848 6.09519 0.794191 0.88697 6.82324 0.494273 2.79887 1.77237 0.648115 5.17676 1.53925 1.05188 4.68938 1.40829 0.480294 2.78334 4.16898 3.77659 6.21968 3.24139 4.31228 2.56797 1.36045 1.5508 7.99786 2.41482 0.389264 7.85812 1.70128 6.34454 4.39639 3.54036 0.403673 5.76232 3.00909 0.815254 5.22531 2.80935 0.935288 8.8322 2.22333 7.82616 2.76895 2.98018 2.34642 2.3688 5.73682 0.724922 3.1438 1.0116 3.66129 4.66701 5.30148 5.88923 2.44936 5.308 2.63833 2.02449 7.01082 1.21165 7.52313 0.686331 0.460013 5.61396 1.94619 2.99699 1.68144 0.41798 4.39914 10.2027 0.770543 0.554203 1.79732 0.778223 10.8358 3.58132 4.66701 2.17934 1.72397 1.3333 3.88774 0.659349 0.561341 1.45153 0.414161 0.509538 6.95827 3.30957 0.439286 6.40884 1.19655 0.987584 3.53148 4.77574 1.15834 3.01506 11.0457 4.35946 1.6139 2.68051 1.18735 2.90329 4.28791 1.8081 5.98615 0.649376 2.44552 3.93637 1.70721 1.90964 0.759297 2.02354 1.83546 3.59471 3.12002 7.37986 2.94686 4.27562 2.32994 1.48667 1.2447 6.74451 4.0807 5.77607 5.73235 1.02871 1.37834 5.24343 0.597223 5.12932 0.428868 1.68602 8.29532 1.65762 1.35919 1.38757 3.75355 2.90712 5.86739 3.77659 0.599926 0.232367 6.0019 1.23358 5.5577 3.36817 7.16203 5.46442 2.8048 2.52208 1.49381 1.83128 1.64448 3.43918 0.801599 6.62682 4.91852 5.6394 0.828468 3.3718 1.19655 1.68545 1.40171 6.15826 5.96237 1.00637 2.69557 1.27621 7.00087 2.84026 5.16263 0.990052 3.88168 1.54892 2.28036 2.78334 2.81661 0.642463 6.7443 1.19649 0.848444 5.62629 1.14462 0.905329 3.23987 5.2658 4.35433 1.29534 0.558947 4.82314 0.955872 6.61459 0.997785 5.98853 2.15948 5.68977 0.88697 2.71008 0.618657 5.94072 0.780496 3.86615 6.49117 5.35073 5.76232 1.86162 8.3812 1.7026 0.398857 3.60667 3.94944 1.15987 3.86738 6.63754 2.9732 6.62682 1.43724 2.02354 4.15567 1.27169 4.79386 5.11355 2.28213 3.85088 0.964778 0.798296 0.400612 2.06773 2.75299 5.91092 0.493106 6.91294 3.12691 0.495171 2.46021 8.54195 6.51354 1.96112 2.60571 5.96 4.1808 0.772957 0.988458 1.49905 1.01676 6.90574 1.62723 3.72914 1.21165 2.77661 2.95377 0.807672 6.78354 1.24736 0.872072 2.73581 4.49088 0.885499 1.35136 5.285 5.12932 7.82198 3.70886 2.3093 5.36336 8.13059 4.46578 4.6644 4.82314 6.59147 3.40952 2.36727 2.44644 0.462215 5.87241 3.31473 3.18855 2.71008 1.53925 1.13083 2.8437 0.380098 5.18363 0.890959 0.947461 1.11991 2.96348 0.756033 1.80133 3.08089 6.72702 3.8793 2.0125 3.03838 1.50104 1.48673 5.98615 1.25996 2.69958 4.2378 1.58464 2.48579 6.56133 3.64956 2.69958 2.04473 1.92371 1.99179 4.99309 0.199735 4.51867 7.81541 0.680602 6.9669 0.312727 6.55388 0.985797 1.96131 2.69557 7.7389 5.73235 1.96631 0.36233 5.97071 4.96506 1.73977 1.29534 6.70538 0.75194 0.413819 0.951837 9.01989 0.77023 0.581462 4.22057 6.22684 6.86142 3.05592 2.44936 0.783871 5.63256 4.62744 0.41