<VTKFile type="UnstructuredGrid" version="0.1">
<UnstructuredGrid>
<Piece  NumberOfPoints="    2473" NumberOfCells="     412">
<Points>
<DataArray type="Float64" NumberOfComponents="3" format="ascii">
28.2273 -26.4447 0.0
27.596 -27.0575 0.0
32.0842 -30.7166 0.0
33.4309 -29.394 0.0
33.3786 -24.5539 0.0
38.1083 -41.7913 0.0
38.0493 -41.1261 0.0
31.8772 -40.5135 0.0
31.0762 -41.1657 0.0
28.371 -46.2787 0.0
28.2136 -47.0336 0.0
-23.8874 55.5327 0.0
-26.8932 55.8804 0.0
-28.4708 55.4642 0.0
-29.9802 54.4338 0.0
-27.6336 49.5674 0.0
-24.6062 49.9899 0.0
0.0378214 13.9245 0.0
-1.63489 15.5397 0.0
-9.51549 9.67976 0.0
-9.12432 7.63852 0.0
-8.87531 7.33989 0.0
-0.853698 13.192 0.0
48.2479 -7.65158 0.0
49.3502 -6.6765 0.0
47.314 -1.5737 0.0
44.4724 -4.02552 0.0
43.0085 -5.86978 0.0
44.2671 -8.45409 0.0
51.3918 -6.11688 0.0
53.0925 -7.4631 0.0
56.2277 -3.26943 0.0
52.9396 -0.399721 0.0
-29.2293 -2.70041 0.0
-29.938 -2.41444 0.0
-32.7519 -2.19189 0.0
-31.4591 -6.75778 0.0
-28.6678 -9.27538 0.0
-28.2898 -9.51225 0.0
-27.5581 -9.32649 0.0
11.704 -17.1864 0.0
13.2178 -15.1029 0.0
10.7156 -10.7501 0.0
7.73521 -11.7931 0.0
10.1066 -15.901 0.0
8.95926 51.8765 0.0
14.3598 50.642 0.0
13.1077 52.867 0.0
9.83119 56.5994 0.0
-48.2914 39.7893 0.0
-48.3972 39.3114 0.0
-47.4629 38.5281 0.0
-42.6314 36.2718 0.0
-41.8211 36.6983 0.0
-38.6244 41.1429 0.0
-50.2931 -11.4776 0.0
-47.523 -11.871 0.0
-41.7486 -6.59071 0.0
-41.935 -6.35592 0.0
-51.0717 -8.68521 0.0
-34.962 -13.105 0.0
-39.1381 -11.5033 0.0
-40.1528 -12.7639 0.0
-39.9833 -15.2998 0.0
-39.6775 -17.8997 0.0
-39.5545 -17.9695 0.0
-46.3133 -16.1738 0.0
-46.6429 -13.0749 0.0
-47.6985 -12.4313 0.0
-50.4686 -12.0379 0.0
-51.0934 -13.391 0.0
-50.7393 -17.4134 0.0
-50.3182 -17.9914 0.0
-6.48712 -5.52439 0.0
-6.9591 -5.28123 0.0
-8.85675 -5.69062 0.0
-9.28534 -6.84769 0.0
-10.2185 -10.8707 0.0
-6.12994 -12.5269 0.0
-4.98599 -11.4612 0.0
29.9939 -6.48884 0.0
31.6598 -2.99656 0.0
31.314 -2.68056 0.0
28.3476 -2.63204 0.0
24.7524 -6.77136 0.0
24.5447 -7.67177 0.0
24.5935 -8.03906 0.0
-57.3182 -22.5494 0.0
-55.4225 -25.3838 0.0
-54.1205 -25.8811 0.0
-49.7187 -21.3407 0.0
-50.7645 -18.7246 0.0
-51.1856 -18.1466 0.0
-17.534 44.1187 0.0
-18.3718 44.0735 0.0
-19.2367 38.6064 0.0
-17.7649 38.5397 0.0
-15.1506 38.8157 0.0
-14.7672 41.7147 0.0
-16.4463 43.5434 0.0
55.5927 6.13782 0.0
55.6672 13.5481 0.0
52.68 13.1594 0.0
51.5978 10.063 0.0
28.8437 -11.0347 0.0
33.1158 -10.3935 0.0
35.2046 -6.31377 0.0
33.5674 -4.2059 0.0
32.631 -3.28758 0.0
32.0495 -3.22765 0.0
30.3836 -6.71992 0.0
29.4434 37.742 0.0
30.3894 38.2313 0.0
28.9295 41.9785 0.0
26.3562 42.7786 0.0
25.132 42.7157 0.0
23.2597 42.4087 0.0
57.2011 -3.25628 0.0
58.9474 -5.58096 0.0
59.8032 -5.14667 0.0
60.0133 -4.82298 0.0
60.735 -1.35598 0.0
59.9103 2.22906 0.0
58.4307 2.38798 0.0
-12.358 20.1721 0.0
-12.5052 20.2491 0.0
-14.8724 20.2025 0.0
-18.1042 15.3651 0.0
-18.0953 13.5615 0.0
-16.8302 12.8839 0.0
22.5711 25.6626 0.0
23.9911 24.2445 0.0
29.8135 28.5187 0.0
29.6971 29.4662 0.0
25.5629 31.1879 0.0
28.4469 16.8706 0.0
31.3799 15.4394 0.0
34.4704 17.3856 0.0
34.8709 21.6782 0.0
34.5371 22.5889 0.0
32.6875 23.3815 0.0
31.9709 23.0281 0.0
-42.8465 35.7973 0.0
-47.6779 38.0537 0.0
-46.7923 30.9835 0.0
-45.1563 29.9079 0.0
-43.4601 34.2318 0.0
-34.5803 16.1681 0.0
-37.0628 15.5262 0.0
-37.9845 12.3412 0.0
-36.0642 10.2938 0.0
-30.0577 10.6891 0.0
-32.6419 24.7178 0.0
-33.0754 25.5308 0.0
-38.9223 22.135 0.0
-39.5735 21.6217 0.0
-39.4452 19.9836 0.0
-38.0903 17.9892 0.0
-56.9798 15.9035 0.0
-57.4126 15.6047 0.0
-57.4304 14.9003 0.0
-56.625 9.65743 0.0
-55.6083 8.10851 0.0
-51.5648 10.3911 0.0
50.5872 -14.7791 0.0
49.6089 -14.2871 0.0
43.495 -15.5187 0.0
43.2148 -16.0653 0.0
43.0079 -19.5683 0.0
45.395 -20.3223 0.0
21.7503 -41.274 0.0
22.9198 -41.0324 0.0
29.8822 -35.7417 0.0
29.9375 -35.2064 0.0
29.6109 -34.6033 0.0
27.3289 -34.2534 0.0
20.9383 -37.722 0.0
21.1575 -40.4149 0.0
-37.9124 0.402136 0.0
-38.8033 1.70498 0.0
-44.4737 3.53562 0.0
-44.5831 0.372746 0.0
-41.5202 -1.71114 0.0
7.68996 32.3064 0.0
3.40725 34.2144 0.0
2.0421 33.5109 0.0
-2.80384 28.6862 0.0
-0.838221 27.303 0.0
0.424211 27.7236 0.0
9.09267 20.4348 0.0
7.58237 20.6558 0.0
2.15985 14.2818 0.0
2.46883 14.0242 0.0
6.75201 13.4477 0.0
7.06626 13.7316 0.0
9.31186 16.5625 0.0
9.86636 19.0027 0.0
-57.0002 9.18175 0.0
-60.7023 9.4082 0.0
-61.458 5.06456 0.0
-60.8773 4.47428 0.0
-58.1335 4.12646 0.0
-57.6666 4.50759 0.0
-56.0622 7.12964 0.0
-55.9834 7.63282 0.0
-24.7 -25.588 0.0
-25.1217 -25.1207 0.0
-26.0875 -25.0103 0.0
-28.9606 -27.9759 0.0
-29.682 -29.5996 0.0
-26.6285 -32.8086 0.0
30.183 45.5762 0.0
29.9221 46.1515 0.0
21.6422 47.6467 0.0
26.297 43.2229 0.0
28.8702 42.4228 0.0
30.1736 44.3659 0.0
-4.00199 28.8141 0.0
-3.23559 28.792 0.0
1.61035 33.6168 0.0
-4.1586 33.8887 0.0
-3.49911 -54.4142 0.0
-1.56824 -53.0633 0.0
-5.25395 -45.157 0.0
-5.44386 -45.1824 0.0
-5.8565 -50.0412 0.0
-5.54432 -53.7423 0.0
-5.23115 -53.9768 0.0
-46.9699 -23.0142 0.0
-49.4278 -21.6508 0.0
-53.8297 -26.1912 0.0
-51.8987 -28.5475 0.0
-50.8842 -29.0056 0.0
41.379 -20.6062 0.0
42.3827 -19.7342 0.0
42.5895 -16.2312 0.0
37.705 -18.0222 0.0
34.7343 -19.1926 0.0
38.0211 25.7311 0.0
41.4652 27.2396 0.0
40.4521 28.9582 0.0
38.5096 31.7858 0.0
34.3405 30.231 0.0
-43.1814 15.4768 0.0
-40.0855 19.624 0.0
-40.2138 21.2621 0.0
-41.1458 21.8696 0.0
-47.0865 15.9658 0.0
19.9953 -38.0764 0.0
19.8561 -37.968 0.0
10.1926 -42.1389 0.0
9.26416 -43.5282 0.0
13.2405 -43.0688 0.0
20.2145 -40.7694 0.0
-39.9398 10.8426 0.0
-39.2889 11.7903 0.0
-44.0066 12.7144 0.0
-46.9281 9.30269 0.0
-44.8291 7.44018 0.0
-42.0397 8.40406 0.0
22.0784 -50.4623 0.0
15.9936 -53.1449 0.0
15.1972 -53.889 0.0
18.0438 -59.1534 0.0
19.8032 -58.9829 0.0
-18.4799 -55.6404 0.0
-15.5422 -57.7756 0.0
-11.1854 -54.4641 0.0
-10.826 -53.8502 0.0
-12.0721 -52.1138 0.0
-14.3322 -51.1218 0.0
-16.151 -50.6241 0.0
6.29963 -10.7051 0.0
6.90381 -10.8897 0.0
14.7512 -5.11503 0.0
14.6971 -4.31452 0.0
13.813 -3.85734 0.0
13.1175 -3.90093 0.0
6.59847 -8.96928 0.0
24.6178 33.7184 0.0
18.9013 36.6049 0.0
18.4385 31.7627 0.0
19.2205 31.445 0.0
24.7568 32.1986 0.0
-11.4189 51.9067 0.0
-9.25617 51.6486 0.0
-4.65034 54.9694 0.0
-4.75446 55.7754 0.0
-11.7369 56.7448 0.0
17.6911 -18.1985 0.0
18.8832 -13.0102 0.0
16.3865 -11.6513 0.0
13.7549 -15.266 0.0
12.2411 -17.3494 0.0
12.3385 -17.7689 0.0
24.2172 11.1435 0.0
26.1889 6.89064 0.0
28.0767 8.33746 0.0
31.2223 10.7706 0.0
31.2335 10.9932 0.0
30.7832 12.8834 0.0
-42.0905 -4.44496 0.0
-41.9234 -2.03629 0.0
-44.9863 0.0475998 0.0
-48.6764 -0.791673 0.0
-50.3213 -3.50255 0.0
6.33686 -44.9608 0.0
6.82956 -44.3579 0.0
4.92609 -38.9741 0.0
-0.0627823 -39.9886 0.0
-1.0952 -41.2958 0.0
-1.11314 -41.5132 0.0
2.98126 -43.9692 0.0
-14.0278 37.703 0.0
-9.21681 40.7814 0.0
-11.3024 43.4875 0.0
-14.2939 41.6809 0.0
-14.6773 38.7819 0.0
-21.4897 18.6587 0.0
-22.2756 21.9972 0.0
-23.0806 23.0923 0.0
-24.4004 23.1433 0.0
-26.4848 21.6391 0.0
-27.6721 17.5209 0.0
-26.3334 15.2518 0.0
-32.7753 -46.2351 0.0
-30.9735 -46.0932 0.0
-31.5863 -39.8506 0.0
-35.5217 -40.0494 0.0
-35.7268 -42.0593 0.0
17.7385 17.2814 0.0
17.0189 17.2443 0.0
14.298 13.7515 0.0
17.3512 10.6343 0.0
20.5776 13.436 0.0
18.5051 16.7548 0.0
1.04579 -58.3664 0.0
1.75136 -61.9343 0.0
8.75839 -57.7888 0.0
9.20202 -57.1599 0.0
9.10247 -55.8084 0.0
8.89884 -55.8271 0.0
7.69918 -55.9046 0.0
12.9355 -3.67568 0.0
7.63799 -1.90563 0.0
5.92715 -6.19494 0.0
6.4165 -8.74403 0.0
17.7739 -2.42928 0.0
22.5898 -4.87461 0.0
22.9486 1.31469 0.0
21.8994 1.70477 0.0
19.5752 1.46976 0.0
28.299 -11.2659 0.0
29.8389 -6.9511 0.0
24.4385 -8.50132 0.0
24.0661 -11.7893 0.0
24.7083 -12.3728 0.0
27.6621 -11.8202 0.0
29.6734 46.5249 0.0
29.5859 47.3882 0.0
26.9789 50.1329 0.0
19.8864 50.9461 0.0
18.7564 49.737 0.0
21.3936 48.0202 0.0
22.7047 -47.4749 0.0
20.7532 -44.0119 0.0
16.5949 -46.6529 0.0
16.4377 -48.8227 0.0
-1.72647 15.8266 0.0
-2.29661 17.0877 0.0
-3.57219 17.7389 0.0
-5.98241 17.2442 0.0
-10.1192 11.0745 0.0
-9.60707 9.96664 0.0
58.1644 3.41408 0.0
58.4585 3.24013 0.0
59.9381 3.08121 0.0
60.4994 4.57024 0.0
60.7316 8.48123 0.0
58.6792 11.8471 0.0
58.4693 11.9953 0.0
-28.4284 3.72479 0.0
-28.9255 3.39004 0.0
-29.653 -1.87764 0.0
-28.9442 -2.1636 0.0
-24.5135 -2.62278 0.0
-24.188 -1.84808 0.0
-24.9513 0.206806 0.0
-5.04732 3.28183 0.0
-5.55697 0.531365 0.0
-0.8391 -2.79505 0.0
-0.642567 -2.60689 0.0
-0.0607353 -0.470161 0.0
-2.10888 2.86188 0.0
-3.35019 3.57874 0.0
21.063 12.6851 0.0
20.8049 12.7583 0.0
17.5785 9.95657 0.0
17.3453 9.49958 0.0
17.0768 8.68702 0.0
18.9303 3.05517 0.0
19.4677 2.32205 0.0
21.7919 2.55706 0.0
-17.1051 44.8357 0.0
-16.0175 44.2603 0.0
-8.81112 49.259 0.0
-9.64599 51.0283 0.0
-11.8087 51.2864 0.0
-12.4809 51.1427 0.0
-18.2279 -38.9238 0.0
-17.4452 -38.5425 0.0
-14.3366 -34.209 0.0
-16.5867 -32.3722 0.0
-20.5959 -34.4241 0.0
32.0893 37.4253 0.0
32.8704 36.8087 0.0
38.3677 35.0143 0.0
39.7676 36.0038 0.0
39.8211 36.4318 0.0
35.6933 39.7136 0.0
-14.7147 35.4459 0.0
-18.8296 32.5168 0.0
-18.5052 29.006 0.0
-14.9677 27.8645 0.0
-13.8712 28.7631 0.0
33.1953 -2.61243 0.0
34.1316 -3.53075 0.0
40.7963 -1.14311 0.0
41.0588 2.73437 0.0
37.2145 0.549437 0.0
42.6614 -30.9735 0.0
42.451 -33.6881 0.0
42.925 -34.8996 0.0
43.3566 -34.9783 0.0
44.8882 -34.8228 0.0
48.5793 -30.8054 0.0
-8.81578 51.3623 0.0
-7.98091 49.5931 0.0
-7.06973 48.8066 0.0
0.59894 50.9566 0.0
0.617019 51.3966 0.0
-4.20995 54.6832 0.0
-26.5791 32.266 0.0
-26.5077 31.3605 0.0
-24.3277 23.9517 0.0
-23.0079 23.9006 0.0
-21.078 27.083 0.0
-39.225 -42.6326 0.0
-36.2746 -41.7449 0.0
-36.0696 -39.7349 0.0
-37.0541 -38.2812 0.0
-38.6524 -36.628 0.0
-41.4532 -37.2692 0.0
1.72419 50.6652 0.0
6.00883 48.6403 0.0
9.9486 47.1829 0.0
7.82039 51.7149 0.0
4.481 53.0595 0.0
1.64679 51.2836 0.0
1.62871 50.8436 0.0
37.3353 1.06855 0.0
41.1796 3.25349 0.0
41.9002 4.69481 0.0
41.4927 6.18767 0.0
38.8921 7.05904 0.0
36.4485 6.33175 0.0
-40.1254 -18.3124 0.0
-40.4313 -15.7125 0.0
-45.3369 -17.3944 0.0
-44.1261 -21.6256 0.0
[...]
<CellData Scalars="cell variable 4" Vectors="cell vector">
<DataArray type="Float64" NumberOfComponents="3" Name="cell vector" format="ascii">
0 0 0
0 0 0
0 0 0
0 0 0
0 0 0
0 0 0
0 0 0
0 0 0
0 0 0
0 0 0
0 0 0
0 0 0
0 0 0
0 0 0
0 0 0
0 0 0
0 0 0
0 0 0
0 0 0
0 0 0
0 0 0
0 0 0
0 0 0
0 0 0
0 0 0
0 0 0
0 0 0
0 0 0
0 0 0
0 0 0
0 0 0
0 0 0
0 0 0
0 0 0
0 0 0
0 0 0
0 0 0
0 0 0
0 0 0
0 0 0
0 0 0
0 0 0
0 0 0
0 0 0
0 0 0
0 0 0
0 0 0
0 0 0
0 0 0
0 0 0
0 0 0
0 0 0
0 0 0
0 0 0
0 0 0
0 0 0
0 0 0
0 0 0
0 0 0
0 0 0
0 0 0
0 0 0
0 0 0
0 0 0
0 0 0
0 0 0
0 0 0
0 0 0
0 0 0
0 0 0
0 0 0
0 0 0
0 0 0
0 0 0
0 0 0
0 0 0
0 0 0
0 0 0
0 0 0
0 0 0
0 0 0
0 0 0
0 0 0
0 0 0
0 0 0
0 0 0
0 0 0
0 0 0
0 0 0
0 0 0
0 0 0
0 0 0
0 0 0
0 0 0
0 0 0
0 0 0
0 0 0
0 0 0
0 0 0
0 0 0
0 0 0
0 0 0
0 0 0
0 0 0
0 0 0
0 0 0
0 0 0
0 0 0
0 0 0
0 0 0
0 0 0
0 0 0
0 0 0
0 0 0
0 0 0
0 0 0
0 0 0
0 0 0
0 0 0
0 0 0
0 0 0
0 0 0
0 0 0
0 0 0
0 0 0
0 0 0
0 0 0
0 0 0
0 0 0
0 0 0
0 0 0
0 0 0
0 0 0
0 0 0
0 0 0
0 0 0
0 0 0
0 0 0
0 0 0
0 0 0
0 0 0
0 0 0
0 0 0
0 0 0
0 0 0
0 0 0
0 0 0
0 0 0
0 0 0
0 0 0
0 0 0
0 0 0
0 0 0
0 0 0
0 0 0
0 0 0
0 0 0
0 0 0
0 0 0
0 0 0
0 0 0
0 0 0
0 0 0
0 0 0
0 0 0
0 0 0
0 0 0
0 0 0
0 0 0
0 0 0
0 0 0
0 0 0
0 0 0
0 0 0
0 0 0
0 0 0
0 0 0
0 0 0
0 0 0
0 0 0
0 0 0
0 0 0
0 0 0
0 0 0
0 0 0
0 0 0
0 0 0
0 0 0
0 0 0
0 0 0
0 0 0
0 0 0
0 0 0
0 0 0
0 0 0
0 0 0
0 0 0
0 0 0
0 0 0
0 0 0
0 0 0
0 0 0
0 0 0
0 0 0
0 0 0
0 0 0
0 0 0
0 0 0
0 0 0
0 0 0
0 0 0
0 0 0
0 0 0
0 0 0
0 0 0
0 0 0
0 0 0
0 0 0
0 0 0
0 0 0
0 0 0
0 0 0
0 0 0
0 0 0
0 0 0
0 0 0
0 0 0
0 0 0
0 0 0
0 0 0
0 0 0
0 0 0
0 0 0
0 0 0
0 0 0
0 0 0
0 0 0
0 0 0
0 0 0
0 0 0
0 0 0
0 0 0
0 0 0
0 0 0
0 0 0
0 0 0
0 0 0
0 0 0
0 0 0
0 0 0
0 0 0
0 0 0
0 0 0
0 0 0
0 0 0
0 0 0
0 0 0
0 0 0
0 0 0
0 0 0
0 0 0
0 0 0
0 0 0
0 0 0
0 0 0
0 0 0
0 0 0
0 0 0
0 0 0
0 0 0
0 0 0
0 0 0
0 0 0
0 0 0
0 0 0
0 0 0
0 0 0
0 0 0
0 0 0
0 0 0
0 0 0
0 0 0
0 0 0
0 0 0
0 0 0
0 0 0
0 0 0
0 0 0
0 0 0
0 0 0
0 0 0
0 0 0
0 0 0
0 0 0
0 0 0
0 0 0
0 0 0
0 0 0
0 0 0
0 0 0
0 0 0
0 0 0
0 0 0
0 0 0
0 0 0
0 0 0
0 0 0
0 0 0
0 0 0
0 0 0
0 0 0
0 0 0
0 0 0
0 0 0
0 0 0
0 0 0
0 0 0
0 0 0
0 0 0
0 0 0
0 0 0
0 0 0
0 0 0
0 0 0
0 0 0
0 0 0
0 0 0
0 0 0
0 0 0
0 0 0
0 0 0
0 0 0
0 0 0
0 0 0
0 0 0
0 0 0
0 0 0
0 0 0
0 0 0
0 0 0
0 0 0
0 0 0
0 0 0
0 0 0
0 0 0
0 0 0
0 0 0
0 0 0
0 0 0
0 0 0
0 0 0
0 0 0
0 0 0
0 0 0
0 0 0
0 0 0
0 0 0
0 0 0
0 0 0
0 0 0
0 0 0
0 0 0
0 0 0
0 0 0
0 0 0
0 0 0
0 0 0
0 0 0
0 0 0
0 0 0
0 0 0
0 0 0
0 0 0
0 0 0
0 0 0
0 0 0
0 0 0
0 0 0
0 0 0
0 0 0
0 0 0
0 0 0
0 0 0
0 0 0
0 0 0
0 0 0
0 0 0
0 0 0
0 0 0
0 0 0
0 0 0
0 0 0
0 0 0
0 0 0
0 0 0
0 0 0
0 0 0
0 0 0
0 0 0
0 0 0
0 0 0
0 0 0
0 0 0
0 0 0
0 0 0
0 0 0
0 0 0
0 0 0
0 0 0
0 0 0
0 0 0
0 0 0
</DataArray>
<DataArray type="Float64" Name="cell vector length" format="ascii">
0 0 0 0 0 0 0 0 0 0 0 0 0 0 0 0 0 0 0 0 0 0 0 0 0 0 0 0 0 0 0 0 0 0 0 0 0 0 0 0 0 0 0 0 0 0 0 0 0 0 0 0 0 0 0 0 0 0 0 0 0 0 0 0 0 0 0 0 0 0 0 0 0 0 0 0 0 0 0 0 0 0 0 0 0 0 0 0 0 0 0 0 0 0 0 0 0 0 0 0 0 0 0 0 0 0 0 0 0 0 0 0 0 0 0 0 0 0 0 0 0 0 0 0 0 0 0 0 0 0 0 0 0 0 0 0 0 0 0 0 0 0 0 0 0 0 0 0 0 0 0 0 0 0 0 0 0 0 0 0 0 0 0 0 0 0 0 0 0 0 0 0 0 0 0 0 0 0 0 0 0 0 0 0 0 0 0 0 0 0 0 0 0 0 0 0 0 0 0 0 0 0 0 0 0 0 0 0 0 0 0 0 0 0 0 0 0 0 0 0 0 0 0 0 0 0 0 0 0 0 0 0 0 0 0 0 0 0 0 0 0 0 0 0 0 0 0 0 0 0 0 0 0 0 0 0 0 0 0 0 0 0 0 0 0 0 0 0 0 0 0 0 0 0 0 0 0 0 0 0 0 0 0 0 0 0 0 0 0 0 0 0 0 0 0 0 0 0 0 0 0 0 0 0 0 0 0 0 0 0 0 0 0 0 0 0 0 0 0 0 0 0 0 0 0 0 0 0 0 0 0 0 0 0 0 0 0 0 0 0 0 0 0 0 0 0 0 0 0 0 0 0 0 0 0 0 0 0 0 0 0 0 0 0 0 0 0 0 0 0 0 0 0 0 0 0 0 0 0 0 0 0 0 0 0 0 0 0 0 0 0 0 0 0 0 0 0 0 0 0 0 0 0 0 0 0 0 0 0 0 0 0 
</DataArray>
<DataArray type="Float64" Name="cell variable 4" format="ascii">
0.316217 0.000510187 6.16323e-05 1.07467 0.249242 0.0032488 0.542818 0.94865 0.0505895 0.000137838 0.23011 0.479217 0.23011 1.04461 0.573608 0.000586701 0.334198 0.0032488 0.573608 0.161465 0.0032488 0.99432 0.511974 0.511974 0.000425284 0.495708 0.393381 0.00403603 0.0824302 0.163146 0.332003 0.626025 0.980966 3.42138e-05 0.437452 0.161465 0.36504 0.184973 0.00760007 0.313432 0.252014 0.179448 0.187543 0.179448 0.000160982 0.000319359 1.11547 0.434405 0.000705084 0.657465 0.848855 0.23011 0.442722 0.33356 0.673042 0.136507 1.06245 0.000237451 1.11547 0.912892 0.573608 0.161465 0.187543 1.07467 0.0032488 0.542818 1.12037 0.848855 0.130161 0.393247 0.00370628 0.503886 0.45141 0.118662 0.0976075 0.371127 0.000116047 0.0505895 0.45141 0.23011 0.000209614 0.00103121 0.495708 0.0032488 0.118662 4.61276e-06 0.0824302 1.10185 1.14226 0.371127 0.184973 0.708918 5.26566e-05 0.334198 4.42555e-05 0.00273317 0.118662 0.919422 0.00103121 0.163146 0.503886 1.04461 0.249242 0.313432 0.631062 0.919422 0.479217 0.0978407 0.434405 0.912892 0.542818 0.00370628 0.000157331 0.673042 0.184059 0.334198 0.542818 6.16323e-05 1.11547 0.789941 0.00403603 0.153908 0.399988 0.343308 0.393381 0.673042 0.179448 0.573608 0.99432 0.000705084 0.514292 0.153908 0.789941 0.000705084 0.66381 0.136507 0.50937 0.000160982 1.04461 0.0505895 0.184973 1.00681 1.12037 0.393247 0.187543 0.980966 0.66381 0.99432 0.32239 8.68069e-05 0.0773391 0.980966 0.00151096 0.919422 1.00681 0.161465 0.23011 0.790107 0.542818 0.0032488 0.0097703 0.94865 0.848855 0.136507 0.187543 0.763876 0.657465 0.0505895 0.184973 0.36504 0.27464 0.184973 0.00403603 0.371127 0.163146 0.313432 1.00681 1.00681 0.130161 0.0824302 1.12037 0.179448 0.00760007 0.000331293 0.00103121 0.437452 0.657465 1.11547 0.313432 0.136507 0.23011 0.0646441 1.07467 0.399988 0.50937 0.000209614 0.94865 0.0773391 0.8063 4.18495e-05 0.790107 0.393247 0.161465 0.657465 0.631062 0.50937 0.45141 0.00760007 8.68069e-05 0.442722 0.514292 0.000157331 0.631062 0.495708 0.0773391 0.153908 0.316217 0.136507 0.184973 0.00403603 0.252014 0.316217 0.434405 0.00145277 0.000306373 0.8063 0.000331293 0.332003 0.0978407 0.763876 0.000157331 0.90618 0.27464 0.187543 0.000510187 0.0646441 1.10185 0.479217 0.00370628 0.631062 0.184059 0.187543 0.343308 0.32239 0.32239 0.399988 0.90618 0.736473 0.153908 0.0032488 0.00760007 0.393247 0.626025 0.36504 0.316217 0.763876 1.10185 0.27464 0.0097703 0.000705084 0.32239 0.514292 0.184059 0.45141 0.36504 0.27464 0.0978407 0.0505895 0.437452 0.919422 0.000319359 0.789941 0.136507 0.542818 0.153908 0.000586701 0.136507 0.631062 0.184973 0.0505895 0.187543 0.736473 0.00370628 0.00103121 0.00103121 0.000157331 0.00760007 0.343308 0.50937 0.0097703 0.0505895 0.23011 0.00151096 0.0978407 0.332003 0.0032488 0.00145277 0.184973 0.66381 0.673042 0.912892 0.790107 0.153908 0.179448 0.0646441 0.118662 0.000160982 0.00145277 0.161465 0.90618 0.631062 0.542818 1.12037 1.07467 0.912892 0.153908 0.130161 1.11547 0.980966 0.8063 0.0824302 0.32239 0.161465 0.399988 0.332003 0.118662 0.153908 1.14226 0.573608 0.33356 0.163146 0.0824302 0.708918 0.252014 0.626025 0.479217 0.90618 0.495708 0.36504 0.118662 0.542818 0.249242 0.000425284 0.393381 0.000425284 1.06245 0.187543 0.848855 0.33356 0.434405 0.657465 0.573608 0.919422 0.442722 0.399988 0.252014 0.514292 0.8063 0.00273317 1.14226 0.000237451 0.343308 0.313432 1.23799e-05 0.919422 0.763876 0.00145277 0.313432 0.789941 1.11547 0.000116047 0.442722 0.0773391 1.10185 0.23011 0.790107 0.136507 0.184059 0.673042 0.00370628 0.66381 0.000160982 1.06245 0.514292 0.0976075 0.00151096 0.252014 0.249242 1.14226 0.631062 0.626025 1.04461 0.179448 0.371127 0.334198 0.919422 0.00151096 0.511974 1.06245 0.161465 0.0505895 0.736473 0.0646441 0.000306373 0.511974 0.130161 0.437452 0.94865 0.736473 0.631062 0.000237451 0.33356 
</DataArray>
<DataArray type="Float64" Name="cell variable 5" format="ascii">
0.0909148 0.999974 1 0.00858434 0.138655 0.998946 0.0328244 0.0109898 0.796223 0.999998 0.158855 0.0417277 0.158855 0.00908091 0.0294962 0.999966 0.082177 0.998946 0.0294962 0.277231 0.998946 0.0100133 0.0367488 0.0367488 0.999982 0.0391044 0.0606986 0.998374 0.595425 0.273099 0.0831765 0.0248813 0.0102849 1 0.0496613 0.277231 0.0698059 0.226167 0.994257 0.0923878 0.136034 0.236958 0.221374 0.236958 0.999997 0.99999 0.00797274 0.0503251 0.99995 0.0226112 0.0136882 0.158855 0.0485429 0.0824658 0.021599 0.349234 0.00878122 0.999994 0.00797274 0.0118572 0.0294962 0.277231 0.221374 0.00858434 0.998946 0.0328244 0.00790366 0.0136882 0.371169 0.0607373 0.998628 0.037893 0.0467791 0.415271 0.512105 0.0676886 0.999999 0.796223 0.0467791 0.158855 0.999996 0.999894 0.0391044 0.998946 0.415271 1 0.595425 0.00816951 0.00760594 0.0676886 0.226167 0.0195097 1 0.082177 1 0.999254 0.415271 0.0116913 0.999894 0.273099 0.037893 0.00908091 0.138655 0.0923878 0.0244954 0.0116913 0.0417277 0.510913 0.0503251 0.0118572 0.0328244 0.998628 0.999998 0.021599 0.227907 0.082177 0.0328244 1 0.00797274 0.0157727 0.998374 0.296844 0.0588268 0.0782104 0.0606986 0.021599 0.236958 0.0294962 0.0100133 0.99995 0.0364304 0.296844 0.0157727 0.99995 0.0221905 0.349234 0.0371116 0.999997 0.00908091 0.796223 0.226167 0.00976872 0.00790366 0.0607373 0.221374 0.0102849 0.0221905 0.0100133 0.0877689 0.999999 0.62573 0.0102849 0.999772 0.0116913 0.00976872 0.277231 0.158855 0.0157662 0.0328244 0.998946 0.990544 0.0109898 0.0136882 0.349234 0.221374 0.016849 0.0226112 0.796223 0.226167 0.0698059 0.117059 0.226167 0.998374 0.0676886 0.273099 0.0923878 0.00976872 0.00976872 0.371169 0.595425 0.00790366 0.236958 0.994257 0.999989 0.999894 0.0496613 0.0226112 0.00797274 0.0923878 0.349234 0.158855 0.705275 0.00858434 0.0588268 0.0371116 0.999996 0.0109898 0.62573 0.0151488 1 0.0157662 0.0607373 0.277231 0.0226112 0.0244954 0.0371116 0.0467791 0.994257 0.999999 0.0485429 0.0364304 0.999998 0.0244954 0.0391044 0.62573 0.296844 0.0909148 0.349234 0.226167 0.998374 0.136034 0.0909148 0.0503251 0.999789 0.999991 0.0151488 0.999989 0.0831765 0.510913 0.016849 0.999998 0.0120314 0.117059 0.221374 0.999974 0.705275 0.00816951 0.0417277 0.998628 0.0244954 0.227907 0.221374 0.0782104 0.0877689 0.0877689 0.0588268 0.0120314 0.0181031 0.296844 0.998946 0.994257 0.0607373 0.0248813 0.0698059 0.0909148 0.016849 0.00816951 0.117059 0.990544 0.99995 0.0877689 0.0364304 0.227907 0.0467791 0.0698059 0.117059 0.510913 0.796223 0.0496613 0.0116913 0.99999 0.0157727 0.349234 0.0328244 0.296844 0.999966 0.349234 0.0244954 0.226167 0.796223 0.221374 0.0181031 0.998628 0.999894 0.999894 0.999998 0.994257 0.0782104 0.0371116 0.990544 0.796223 0.158855 0.999772 0.510913 0.0831765 0.998946 0.999789 0.226167 0.0221905 0.021599 0.0118572 0.0157662 0.296844 0.236958 0.705275 0.415271 0.999997 0.999789 0.277231 0.0120314 0.0244954 0.0328244 0.00790366 0.00858434 0.0118572 0.296844 0.371169 0.00797274 0.0102849 0.0151488 0.595425 0.0877689 0.277231 0.0588268 0.0831765 0.415271 0.296844 0.00760594 0.0294962 0.0824658 0.273099 0.595425 0.0195097 0.136034 0.0248813 0.0417277 0.0120314 0.0391044 0.0698059 0.415271 0.0328244 0.138655 0.999982 0.0606986 0.999982 0.00878122 0.221374 0.0136882 0.0824658 0.0503251 0.0226112 0.0294962 0.0116913 0.0485429 0.0588268 0.136034 0.0364304 0.0151488 0.999254 0.00760594 0.999994 0.0782104 0.0923878 1 0.0116913 0.016849 0.999789 0.0923878 0.0157727 0.00797274 0.999999 0.0485429 0.62573 0.00816951 0.158855 0.0157662 0.349234 0.227907 0.021599 0.998628 0.0221905 0.999997 0.00878122 0.0364304 0.512105 0.999772 0.136034 0.138655 0.00760594 0.0244954 0.0248813 0.00908091 0.236958 0.0676886 0.082177 0.0116913 0.999772 0.0367488 0.00878122 0.277231 0.796223 0.0181031 0.705275 0.999991 0.0367488 0.371169 0.0496613 0.0109898 0.0181031 0.0244954 0.999994 0.0824658 
</DataArray>
<DataArray type="Float64" Name="cell variable 6" format="ascii">
0.0038835 1.00883 1.00913 5.3719e-06 0.0566856 1.00681 0.000251962 1.10661e-05 0.900072 1.00908 0.0671729 0.00051123 0.0671729 6.33494e-06 0.000187165 1.00878 0.00576492 1.00681 0.000187165 0.298329 1.00681 8.43313e-06 0.00035504 0.00035504 1.00889 0.000410215 0.00151522 1.00605 0.752638 0.294057 0.00364689 0.000115922 9.11938e-06 1.00915 0.000885689 0.298329 0.0019794 0.208208 1.00277 0.00439847 0.0441278 0.235078 0.185318 0.235078 1.00907 1.00896 4.32387e-06 0.000857904 1.0087 8.84138e-05 2.09522e-05 0.0671729 0.000858618 0.00403961 7.76673e-05 0.432355 5.74138e-06 1.00902 4.32387e-06 1.38076e-05 0.000187165 0.298329 0.185318 5.3719e-06 1.00681 0.000251962 4.21468e-06 2.09522e-05 0.477444 0.00202135 1.00642 0.000380196 0.000696942 0.533485 0.67289 0.0019189 1.0091 0.900072 0.000696942 0.0671729 1.00904 1.00849 0.000410215 1.00681 0.533485 1.00917 0.752638 4.64493e-06 3.76475e-06 0.0019189 0.208208 5.81379e-05 1.00914 0.00576492 1.00914 1.00716 0.533485 1.32528e-05 1.00849 0.294057 0.000380196 6.33494e-06 0.0566856 0.00439847 0.000110922 1.32528e-05 0.00051123 0.674122 0.000857904 1.38076e-05 0.000251962 1.00642 1.00907 7.76673e-05 0.235443 0.00576492 0.000251962 1.00913 4.32387e-06 3.156e-05 1.00605 0.3398 0.00127682 0.00310284 0.00151522 7.76673e-05 0.235078 0.000187165 8.43313e-06 1.0087 0.000349016 0.3398 3.156e-05 1.0087 8.3838e-05 0.432355 0.000394946 1.00907 6.33494e-06 0.900072 0.208208 7.8448e-06 4.21468e-06 0.00202135 0.185318 9.11938e-06 8.3838e-05 8.43313e-06 0.00628005 1.00912 0.780596 9.11938e-06 1.00816 1.32528e-05 7.8448e-06 0.298329 0.0671729 3.15261e-05 0.000251962 1.00681 1.00014 1.10661e-05 2.09522e-05 0.432355 0.185318 3.81646e-05 8.84138e-05 0.900072 0.208208 0.0019794 0.02163 0.208208 1.00605 0.0019189 0.294057 0.00439847 7.8448e-06 7.8448e-06 0.477444 0.752638 4.21468e-06 0.235078 1.00277 1.00895 1.00849 0.000885689 8.84138e-05 4.32387e-06 0.00439847 0.432355 0.0671729 0.841792 5.3719e-06 0.00127682 0.000394946 1.00904 1.10661e-05 0.780596 2.80904e-05 1.00915 3.15261e-05 0.00202135 0.298329 8.84138e-05 0.000110922 0.000394946 0.000696942 1.00277 1.00912 0.000858618 0.000349016 1.00907 0.000110922 0.000410215 0.780596 0.3398 0.0038835 0.432355 0.208208 1.00605 0.0441278 0.0038835 0.000857904 1.00814 1.00897 2.80904e-05 1.00895 0.00364689 0.674122 3.81646e-05 1.00907 1.4406e-05 0.02163 0.185318 1.00883 0.841792 4.64493e-06 0.00051123 1.00642 0.000110922 0.235443 0.185318 0.00310284 0.00628005 0.00628005 0.00127682 1.4406e-05 4.69278e-05 0.3398 1.00681 1.00277 0.00202135 0.000115922 0.0019794 0.0038835 3.81646e-05 4.64493e-06 0.02163 1.00014 1.0087 0.00628005 0.000349016 0.235443 0.000696942 0.0019794 0.02163 0.674122 0.900072 0.000885689 1.32528e-05 1.00896 3.156e-05 0.432355 0.000251962 0.3398 1.00878 0.432355 0.000110922 0.208208 0.900072 0.185318 4.69278e-05 1.00642 1.00849 1.00849 1.00907 1.00277 0.00310284 0.000394946 1.00014 0.900072 0.0671729 1.00816 0.674122 0.00364689 1.00681 1.00814 0.208208 8.3838e-05 7.76673e-05 1.38076e-05 3.15261e-05 0.3398 0.235078 0.841792 0.533485 1.00907 1.00814 0.298329 1.4406e-05 0.000110922 0.000251962 4.21468e-06 5.3719e-06 1.38076e-05 0.3398 0.477444 4.32387e-06 9.11938e-06 2.80904e-05 0.752638 0.00628005 0.298329 0.00127682 0.00364689 0.533485 0.3398 3.76475e-06 0.000187165 0.00403961 0.294057 0.752638 5.81379e-05 0.0441278 0.000115922 0.00051123 1.4406e-05 0.000410215 0.0019794 0.533485 0.000251962 0.0566856 1.00889 0.00151522 1.00889 5.74138e-06 0.185318 2.09522e-05 0.00403961 0.000857904 8.84138e-05 0.000187165 1.32528e-05 0.000858618 0.00127682 0.0441278 0.000349016 2.80904e-05 1.00716 3.76475e-06 1.00902 0.00310284 0.00439847 1.00917 1.32528e-05 3.81646e-05 1.00814 0.00439847 3.156e-05 4.32387e-06 1.0091 0.000858618 0.780596 4.64493e-06 0.0671729 3.15261e-05 0.432355 0.235443 7.76673e-05 1.00642 8.3838e-05 1.00907 5.74138e-06 0.000349016 0.67289 1.00816 0.0441278 0.0566856 3.76475e-06 0.000110922 0.000115922 6.33494e-06 0.235078 0.0019189 0.00576492 1.32528e-05 1.00816 0.00035504 5.74138e-06 0.298329 0.900072 4.69278e-05 0.841792 1.00897 0.00035504 0.477444 0.000885689 1.10661e-05 4.69278e-05 0.000110922 1.00902 0.00403961 
</DataArray>
<DataArray type="Float64" Name="cell variable 7" format="ascii">
0.357275 0.805214 0.804393 0.0863829 0.413855 0.731648 0.214434 0.109939 0.667622 0.818915 0.46057 0.24144 0.46057 0.091923 0.203114 0.789622 0.334908 0.731648 0.203114 0.543895 0.731648 0.10127 0.2268 0.2268 0.777768 0.233945 0.290041 0.781706 0.652741 0.531783 0.340125 0.185875 0.103782 0.881455 0.262734 0.543895 0.311423 0.488241 0.695937 0.360012 0.422896 0.481302 0.511928 0.481302 0.804465 0.786592 0.0788486 0.264653 0.790771 0.176526 0.129973 0.46057 0.259721 0.337987 0.172124 0.58017 0.0886341 0.815305 0.0788486 0.116913 0.203114 0.543895 0.511928 0.0863829 0.731648 0.214434 0.0779382 0.129973 0.557964 0.288948 0.736426 0.230311 0.255368 0.633332 0.58928 0.306453 0.821805 0.667622 0.255368 0.46057 0.803638 0.74517 0.233945 0.731648 0.633332 0.89681 0.652741 0.0813708 0.0738515 0.306453 0.488241 0.162493 0.808066 0.334908 0.85435 0.786302 0.633332 0.115625 0.74517 0.531783 0.230311 0.091923 0.413855 0.360012 0.184332 0.115625 0.24144 0.570965 0.264653 0.116913 0.214434 0.736426 0.802201 0.172124 0.426674 0.334908 0.214434 0.804393 0.0788486 0.142859 0.781706 0.544906 0.285858 0.329428 0.290041 0.172124 0.481302 0.203114 0.10127 0.790771 0.225806 0.544906 0.142859 0.790771 0.174715 0.58017 0.227704 0.804465 0.091923 0.667622 0.488241 0.0989326 0.0779382 0.288948 0.511928 0.103782 0.174715 0.10127 0.347352 0.812727 0.646851 0.103782 0.723507 0.115625 0.0989326 0.543895 0.46057 0.142821 0.214434 0.731648 0.724735 0.109939 0.129973 0.58017 0.511928 0.148901 0.176526 0.667622 0.488241 0.311423 0.399197 0.488241 0.781706 0.306453 0.531783 0.360012 0.0989326 0.0989326 0.557964 0.652741 0.0779382 0.481302 0.695937 0.823381 0.74517 0.262734 0.176526 0.0788486 0.360012 0.58017 0.46057 0.663687 0.0863829 0.285858 0.227704 0.803638 0.109939 0.646851 0.139181 0.828165 0.142821 0.288948 0.543895 0.176526 0.184332 0.227704 0.255368 0.695937 0.812727 0.259721 0.225806 0.802201 0.184332 0.233945 0.646851 0.544906 0.357275 0.58017 0.488241 0.781706 0.422896 0.357275 0.264653 0.822606 0.774006 0.139181 0.823381 0.340125 0.570965 0.148901 0.802201 0.118245 0.399197 0.511928 0.805214 0.663687 0.0813708 0.24144 0.736426 0.184332 0.426674 0.511928 0.329428 0.347352 0.347352 0.285858 0.118245 0.15552 0.544906 0.731648 0.695937 0.288948 0.185875 0.311423 0.357275 0.148901 0.0813708 0.399197 0.724735 0.790771 0.347352 0.225806 0.426674 0.255368 0.311423 0.399197 0.570965 0.667622 0.262734 0.115625 0.786592 0.142859 0.58017 0.214434 0.544906 0.789622 0.58017 0.184332 0.488241 0.667622 0.511928 0.15552 0.736426 0.74517 0.74517 0.802201 0.695937 0.329428 0.227704 0.724735 0.667622 0.46057 0.723507 0.570965 0.340125 0.731648 0.822606 0.488241 0.174715 0.172124 0.116913 0.142821 0.544906 0.481302 0.663687 0.633332 0.804465 0.822606 0.543895 0.118245 0.184332 0.214434 0.0779382 0.0863829 0.116913 0.544906 0.557964 0.0788486 0.103782 0.139181 0.652741 0.347352 0.543895 0.285858 0.340125 0.633332 0.544906 0.0738515 0.203114 0.337987 0.531783 0.652741 0.162493 0.422896 0.185875 0.24144 0.118245 0.233945 0.311423 0.633332 0.214434 0.413855 0.777768 0.290041 0.777768 0.0886341 0.511928 0.129973 0.337987 0.264653 0.176526 0.203114 0.115625 0.259721 0.285858 0.422896 0.225806 0.139181 0.786302 0.0738515 0.815305 0.329428 0.360012 0.864126 0.115625 0.148901 0.822606 0.360012 0.142859 0.0788486 0.821805 0.259721 0.646851 0.0813708 0.46057 0.142821 0.58017 0.426674 0.172124 0.736426 0.174715 0.804465 0.0886341 0.225806 0.58928 0.723507 0.422896 0.413855 0.0738515 0.184332 0.185875 0.091923 0.481302 0.306453 0.334908 0.115625 0.723507 0.2268 0.0886341 0.543895 0.667622 0.15552 0.663687 0.774006 0.2268 0.557964 0.262734 0.109939 0.15552 0.184332 0.815305 0.337987 
</DataArray>
<DataArray type="Float64" Name="cell variable 8" format="ascii">