<VTKFile type="UnstructuredGrid" version="0.1">
<UnstructuredGrid>
<Piece  NumberOfPoints="    3325" NumberOfCells="    2441">
<Points>
<DataArray type="Float64" NumberOfComponents="3" format="ascii">
9.2413 25.008 0 
11.9056 10.4437 0 
-13.2532 -15.5911 0 
25.2326 -39.9603 0 
-52.1924 8.27795 0 
-51.9179 24.5125 0 
12.7822 -59.4052 0 
41.5219 17.4379 0 
39.4359 -2.73793 0 
2.36099 -37.0615 0 
19.161 -1.60388 0 
-4.3007 -47.4998 0 
-19.5338 57.4535 0 
38.3068 -34.5826 0 
20.0477 19.7742 0 
-15.0841 -58.9051 0 
-29.7305 25.6911 0 
-8.96368 24.9188 0 
-35.5115 17.861 0 
44.8219 -26.3164 0 
-5.40396 39.0871 0 
26.6711 11.8186 0 
38.445 0.0412669 0 
8.27066 0.859265 0 
1.8248 -43.7605 0 
-16.9483 16.2359 0 
-36.2921 -44.5466 0 
-19.8007 43.39 0 
11.4355 -13.8849 0 
-0.603987 -31.0163 0 
2.31379 -26.1685 0 
-23.1753 -27.2144 0 
-30.0584 46.6588 0 
-40.9636 -2.79228 0 
-40.3294 -20.751 0 
-17.0749 -58.5466 0 
-18.9041 49.8172 0 
44.7077 21.4755 0 
-7.72792 6.31444 0 
-29.7874 4.16489 0 
-22.5977 -27.9629 0 
-9.93541 -29.2923 0 
-0.586762 -14.6395 0 
-16.9048 -52.3714 0 
44.6235 13.0888 0 
-7.70701 32.7273 0 
-17.3904 -0.938529 0 
-38.7923 45.6576 0 
7.56837 29.8636 0 
-5.82394 -60.4831 0 
-35.9488 -45.0346 0 
-1.32847 -44.1278 0 
-35.7397 -13.0869 0 
27.8418 3.61105 0 
-35.9668 -34.024 0 
-60.8662 9.31801 0 
23.9971 26.0855 0 
31.1559 36.729 0 
18.6073 -37.9993 0 
8.26763 59.5876 0 
-36.9048 45.8783 0 
-50.139 0.820951 0 
-7.03764 -60.7794 0 
55.7135 9.17759 0 
-15.8467 34.4816 0 
-18.971 -47.2719 0 
33.9774 43.8663 0 
-34.4128 -52.0869 0 
33.9017 -24.9938 0 
-25.6003 17.2486 0 
20.4614 -5.66038 0 
-24.8657 52.5312 0 
31.7025 -50.3304 0 
50.3112 -18.0218 0 
25.0061 3.93313 0 
26.6014 -4.46988 0 
35.0055 -39.0755 0 
-25.2103 17.9158 0 
-42.6041 43.8637 0 
49.5074 16.4721 0 
-48.8938 0.0494528 0 
13.6642 21.6454 0 
-14.6229 -14.6993 0 
-11.6026 53.6757 0 
-46.3615 22.7902 0 
1.6248 37.397 0 
43.9557 14.7532 0 
-37.6202 15.8222 0 
-43.9841 30.1011 0 
-53.4768 -14.0348 0 
-29.537 -17.2511 0 
-41.165 -40.7331 0 
33.7078 46.3184 0 
10.4361 17.8597 0 
47.575 -26.5275 0 
33.6035 30.7353 0 
43.752 -3.32646 0 
-46.4912 -1.75861 0 
32.4511 -45.463 0 
16.4458 -50.8154 0 
10.215 -42.417 0 
47.7522 -7.58734 0 
-21.0643 34.2604 0 
-21.4899 -6.59975 0 
46.9864 -5.3222 0 
-20.1233 -0.785004 0 
-24.8871 -53.689 0 
45.3989 -3.94827 0 
24.6529 -44.4748 0 
57.2971 -16.9618 0 
10.4538 -60.2164 0 
-25.1242 18.0279 0 
40.7964 31.143 0 
40.334 -11.7493 0 
22.9856 -54.0615 0 
-0.3986 -20.6509 0 
-45.9042 -42.2765 0 
10.8582 -36.4233 0 
-8.02486 -33.4212 0 
56.2845 -7.61744 0 
45.4458 10.3263 0 
10.4059 -1.02113 0 
-35.4234 18.5864 0 
-1.05083 17.6434 0 
35.5469 -42.2881 0 
8.92122 -61.145 0 
-23.3229 -31.304 0 
26.1123 15.5107 0 
7.21445 9.30323 0 
-58.9667 20.1895 0 
-25.3192 -45.8836 0 
-32.8497 -2.20155 0 
16.0421 6.68646 0 
-18.0078 -27.0858 0 
55.3989 24.5627 0 
-30.9057 39.7782 0 
48.8955 -8.84134 0 
37.1638 48.5079 0 
7.34243 12.7718 0 
-57.9634 -4.06705 0 
24.9481 39.7805 0 
-43.1113 9.1271 0 
16.9576 33.4088 0 
-8.72417 24.7389 0 
-48.0196 10.2316 0 
4.108 47.4568 0 
38.3834 41.7629 0 
34.0513 -38.898 0 
-37.4766 -3.42076 0 
-0.490643 36.7884 0 
25.5439 29.6437 0 
58.4928 17.8805 0 
-39.9643 -3.62535 0 
15.7911 -23.6983 0 
-32.8398 -28.4724 0 
31.6354 52.7312 0 
12.7616 28.0686 0 
28.9581 18.09 0 
-36.14 30.6079 0 
11.7894 53.0375 0 
-33.1414 -5.68409 0 
-18.7013 -21.5408 0 
-47.2921 -26.3322 0 
20.7763 -45.2955 0 
52.5922 14.8606 0 
32.7776 -10.204 0 
35.8393 49.146 0 
25.8268 -26.8175 0 
2.32172 26.5193 0 
-25.574 -37.6776 0 
39.3377 10.8075 0 
-39.4628 24.3277 0 
-51.0274 21.7566 0 
-18.7557 -38.8463 0 
8.98161 -11.772 0 
-13.9411 28.6912 0 
-20.9256 37.9921 0 
-40.6284 4.59032 0 
34.5817 43.102 0 
21.3852 -12.624 0 
-39.6149 35.4821 0 
0.443965 35.5103 0 
-41.3411 -30.3302 0 
-3.10098 6.15646 0 
-16.8367 28.3826 0 
32.924 -31.7418 0 
-54.1512 13.8842 0 
16.1399 44.0877 0 
15.6334 -15.0719 0 
-41.3282 -19.4645 0 
35.9141 -42.6405 0 
23.1033 8.61914 0 
-58.855 20.7887 0 
-57.8984 -6.47691 0 
-39.9993 7.84808 0 
45.5717 -26.8387 0 
8.84446 18.0931 0 
-28.3998 14.2548 0 
5.2733 7.27106 0 
36.4254 -17.1846 0 
9.54208 33.6258 0 
44.2906 -3.92486 0 
-21.3062 16.929 0 
16.567 45.0074 0 
-19.3144 -47.2887 0 
-2.18776 21.6325 0 
37.8379 -37.3935 0 
-20.6694 53.0077 0 
-2.78662 -7.54544 0 
-54.4687 26.9073 0 
-7.56036 -34.0035 0 
-28.8112 -47.8006 0 
-14.1705 40.3983 0 
43.0646 -23.8483 0 
9.74233 36.6693 0 
43.2884 -34.225 0 
-10.3678 47.1969 0 
-6.20251 59.1229 0 
55.4814 -2.30165 0 
-6.96849 38.3549 0 
-20.5191 28.6848 0 
-39.9664 5.31008 0 
-12.7565 56.1686 0 
43.1024 29.1037 0 
17.8489 36.3837 0 
26.7587 -46.8899 0 
43.1326 35.7265 0 
41.4759 -27.7867 0 
-46.1467 -14.3392 0 
-7.10346 34.0593 0 
-3.311 29.8513 0 
24.0985 -3.48459 0 
-44.5081 33.225 0 
1.26118 -58.4742 0 
-38.4008 -21.2382 0 
-28.1176 -41.3866 0 
20.3674 35.9878 0 
-12.2581 9.92154 0 
-35.6882 17.0987 0 
-31.0849 -24.6344 0 
-56.9457 -8.84843 0 
-2.07077 31.3093 0 
-28.0098 -10.1535 0 
-57.7632 -2.64937 0 
32.8517 -16.4299 0 
-46.8007 22.4224 0 
2.67882 18.5308 0 
-7.9807 -31.6904 0 
-14.2081 27.1196 0 
-41.6326 41.6891 0 
-34.6432 36.6189 0 
25.7741 -30.0119 0 
-52.5341 -27.2043 0 
39.9825 -15.6303 0 
10.5388 -30.5049 0 
-13.2761 -34.3282 0 
-44.343 -9.04472 0 
15.2264 -45.0417 0 
38.9821 -2.54488 0 
-21.6401 -20.8155 0 
-30.4707 -46.9536 0 
8.68139 -11.2382 0 
-38.612 24.3268 0 
32.1268 -1.89074 0 
5.17544 -24.2352 0 
22.8813 -15.1137 0 
-12.8642 13.9352 0 
0.270768 61.7404 0 
-35.2398 38.1427 0 
40.128 -21.1698 0 
-19.2072 39.5971 0 
-25.2244 -38.6336 0 
-21.8828 -3.22565 0 
-33.4429 -30.3731 0 
22.4344 13.8355 0 
42.3747 43.1057 0 
-23.3377 -32.4639 0 
-36.8044 30.4376 0 
-28.0293 -56.6902 0 
-8.6415 -7.05788 0 
14.8186 54.1533 0 
-52.5227 0.826203 0 
-15.0537 59.6686 0 
21.7164 -54.3295 0 
12.753 -8.94559 0 
-51.1551 0.606157 0 
-11.4593 56.2355 0 
12.6748 47.6028 0 
20.5684 -50.204 0 
57.5557 8.59987 0 
-45.003 -19.8824 0 
-6.5438 -36.2919 0 
-4.63655 25.1477 0 
-25.014 22.9443 0 
-40.4108 7.9904 0 
60.0211 -12.0381 0 
-16.1512 -38.7543 0 
-0.406485 36.1486 0 
16.3889 53.7897 0 
-7.6499 -40.8868 0 
-11.6491 10.3367 0 
9.95654 28.2515 0 
-10.1373 -41.6181 0 
30.6082 14.1474 0 
5.71685 59.3886 0 
-24.2444 52.5464 0 
10.471 44.3783 0 
2.16322 18.9929 0 
48.071 31.3583 0 
30.8241 35.2796 0 
2.78863 51.5245 0 
-11.9936 48.8194 0 
-60.7086 5.26705 0 
17.7426 -38.0006 0 
20.3925 -7.09635 0 
-33.3198 5.91262 0 
-22.5729 17.765 0 
-8.20034 -18.3852 0 
40.5351 -13.5307 0 
46.0056 -39.9476 0 
33.0079 -30.81 0 
40.6585 -9.09359 0 
-4.86265 56.6257 0 
31.7543 2.61585 0 
7.22774 -49.8329 0 
-0.707437 -4.16383 0 
-13.589 -11.3538 0 
9.37876 -30.0754 0 
24.8034 -40.9333 0 
-34.2978 1.168 0 
22.916 -15.965 0 
-49.1669 -40.7791 0 
2.15473 -12.4249 0 
-33.3132 -35.1605 0 
25.1683 35.86 0 
24.716 -25.5416 0 
-36.2128 10.1797 0 
-56.2466 12.2213 0 
-57.2334 -8.42275 0 
-26.4288 21.655 0 
-6.32955 38.7152 0 
-40.5926 -38.0282 0 
27.8781 -51.4631 0 
57.9575 9.18227 0 
-24.6946 -53.6728 0 
16.0404 53.7748 0 
-2.63163 23.8458 0 
46.9237 -20.4459 0 
-11.6239 7.76815 0 
35.9115 10.8817 0 
-40.5747 44.5138 0 
-18.17 -47.6501 0 
-19.9709 7.85448 0 
-3.38017 -7.63059 0 
9.90475 -15.0502 0 
-26.1148 44.9037 0 
-54.1393 29.6479 0 
-0.675112 36.928 0 
-59.547 17.8413 0 
18.2357 -40.8058 0 
-0.0255464 -52.785 0 
-11.3616 -59.132 0 
-52.7333 -9.08758 0 
-25.6457 7.92661 0 
-58.2627 -10.8362 0 
4.20154 22.2623 0 
-10.7816 47.3071 0 
-23.5421 -44.9538 0 
48.2659 -4.81117 0 
0.862915 -0.797266 0 
-2.68224 -25.1294 0 
24.2181 6.20447 0 
-0.618717 61.6781 0 
16.7099 40.136 0 
4.68602 -25.227 0 
-26.173 -31.023 0 
40.9235 -46.6394 0 
0.449305 -44.3352 0 
-13.9026 15.5148 0 
4.05521 -7.42673 0 
36.3743 36.0456 0 
-33.4459 32.6853 0 
16.7318 11.2474 0 
15.0231 8.00366 0 
9.87268 -11.0521 0 
-35.993 21.1345 0 
48.8754 29.9913 0 
49.5794 -8.92741 0 
-11.8605 41.129 0 
-36.5152 44.1093 0 
-33.3104 15.8021 0 
-6.31926 4.92368 0 
11.0687 37.7559 0 
-22.3515 -8.53371 0 
21.86 -11.0025 0 
-47.7621 2.70047 0 
-8.2391 6.39971 0 
-39.8782 -25.1107 0 
-14.6382 39.9821 0 
59.716 -6.57998 0 
46.1688 -33.6609 0 
-21.6859 -30.1219 0 
12.8673 44.7681 0 
40.2748 -35.5954 0 
2.77147 -38.0965 0 
-61.3566 1.14828 0 
36.4746 48.9968 0 
-29.6708 14.1839 0 
-6.85998 -49.6138 0 
14.3192 25.8383 0 
-46.9797 14.5649 0 
43.6151 31.4906 0 
36.3444 23.5684 0 
-32.6085 24.6064 0 
-51.3539 21.2228 0 
-19.1101 24.2908 0 
-7.04027 0.44983 0 
0.177134 11.4891 0 
-54.7771 -9.95177 0 
45.8229 -40.6158 0 
-39.3405 -48.1213 0 
24.8748 43.4813 0 
9.13121 3.30927 0 
29.7623 16.2944 0 
54.2358 22.757 0 
59.2195 11.9813 0 
-47.306 -31.2856 0 
-7.76427 -12.7393 0 
-44.9448 34.52 0 
9.74466 17.5745 0 
21.8424 -35.0931 0 
41.202 39.0417 0 
-52.6508 16.1327 0 
-12.7453 10.403 0 
-25.8713 -1.29332 0 
18.94 -24.4685 0 
-9.45172 -1.72061 0 
7.41493 -8.01048 0 
-25.9806 39.6512 0 
50.8885 1.58583 0 
-13.6886 -22.6579 0 
60.1632 4.16161 0 
-47.4215 -36.7834 0 
53.2712 10.2424 0 
-3.02572 -54.4768 0 
-30.9505 -25.749 0 
21.5088 59.152 0 
-33.1968 -28.9773 0 
-14.5123 -22.4432 0 
46.1975 22.8266 0 
-46.3696 -19.1528 0 
58.7236 -7.85865 0 
-26.7801 53.2711 0 
1.94515 46.2998 0 
-16.0024 -58.5222 0 
23.6256 -25.6619 0 
21.4224 -35.3345 0 
16.6087 -24.4153 0 
-6.49856 -48.8771 0 
22.0214 12.4539 0 
-44.5449 -13.593 0 
-32.1938 -23.593 0 
39.8663 22.1943 0 
-29.059 37.8444 0 
-53.4273 15.6182 0 
15.1624 -28.4259 0 
17.8776 43.6275 0 
33.5984 16.3401 0 
33.488 31.339 0 
56.2261 -7.07841 0 
-36.8745 -13.4944 0 
9.42095 -60.9837 0 
19.0565 -31.0893 0 
13.0592 16.7198 0 
13.3331 -3.39678 0 
-10.8796 -24.7171 0 
-1.39712 -26.174 0 
46.9657 -32.594 0 
18.2417 -20.4728 0 
3.95594 28.2538 0 
16.5736 43.5399 0 
-8.4691 -53.7623 0 
16.1772 -23.793 0 
-12.5191 -6.99676 0 
14.2557 -57.346 0 
-9.37869 -6.45575 0 
-16.2519 -53.5375 0 
33.0277 -8.55239 0 
6.32006 -16.0755 0 
-9.69327 -30.2081 0 
26.1703 2.99263 0 
-33.6518 -19.8129 0 
-3.9009 39.0967 0 
43.1163 20.5116 0 
[...]
<CellData Scalars="wall variable 0">
<DataArray type="Float64" Name="wall length" format="ascii">
0.591962 6.97777 1.40168 1.20059 6.76515 2.40869 1.18084 2.55643 3.34761 0.747194 4.01346 1.24014 6.41008 3.87805 7.19716 1.88532 1.36751 6.32833 0.703146 5.43441 3.31473 5.4631 1.52815 2.97818 3.70595 2.79055 2.77301 1.88683 5.62386 2.35427 3.81383 3.5308 0.85441 3.04515 8.15698 3.83766 0.641148 1.12969 3.87619 3.24928 5.62724 3.22199 5.59097 3.84328 5.74233 2.35427 0.30814 6.84411 1.17997 1.45859 1.45908 1.62763 2.51303 6.14286 4.11104 0.80909 3.26523 2.25514 0.349817 3.08039 4.61449 0.6514 6.56666 1.21583 0.867593 3.87074 0.80182 4.93519 5.37137 2.15125 3.22608 3.3165 0.1888 2.8981 4.8611 0.609114 8.87292 2.05564 1.62623 0.898138 8.6021 2.89518 1.31635 4.28353 1.31066 0.718977 2.48926 5.58009 3.47166 6.48154 2.47888 5.07665 0.628988 1.34641 4.38951 3.3373 3.726 0.26813 7.20563 2.05416 7.13308 4.42292 3.34901 0.382066 2.50408 0.472712 4.10806 3.59247 2.05888 6.90222 1.94794 1.68868 0.834213 5.07665 2.26009 1.55089 8.40128 2.26009 2.47888 4.25912 1.0878 2.24862 7.50565 2.0959 6.5099 2.4567 0.781214 2.48577 3.88948 1.02793 3.30782 1.37704 2.57593 1.96607 2.98521 5.0964 3.79684 6.18522 5.63703 1.24014 2.62094 1.80819 4.66162 0.763278 1.28394 2.79098 1.07393 2.06266 6.32505 0.741606 4.41758 2.27035 1.62491 4.64748 3.7823 0.895275 6.90222 2.73182 2.25771 8.26163 0.113847 5.56887 4.64724 1.13856 3.18897 4.88408 2.70033 6.06694 2.27035 1.5066 5.72453 2.73182 2.05888 2.85617 4.49361 5.01462 2.94084 2.77301 1.52723 0.172067 3.23323 5.18145 1.95269 6.66461 3.72252 4.56463 5.2661 3.26212 1.9855 8.03502 1.20902 10.9119 1.85101 5.38346 0.409927 0.457016 3.12755 2.16583 2.14137 1.06989 0.833901 10.9119 1.86854 0.178849 12.0277 0.503437 2.56639 2.76456 5.74398 6.39021 2.57667 4.49361 1.33306 2.84351 7.73523 1.11629 8.03502 6.66775 5.96724 3.40366 2.76557 0.91907 1.69819 4.34729 4.62744 0.775307 2.67197 4.33118 4.35182 0.506839 1.37704 7.37694 2.09653 6.44705 1.90369 1.83382 4.64011 0.937017 6.47433 3.726 0.549955 8.43727 5.33647 2.49062 2.78755 6.97777 9.12971 4.5719 0.110716 6.96949 5.34594 4.83747 1.34724 5.65025 8.18737 7.04586 1.40393 4.64011 0.644532 7.35664 2.61494 1.35323 3.30762 5.54024 5.12678 3.51458 3.09718 0.973483 2.37575 0.886082 1.68795 0.852438 7.82485 2.30067 1.99879 4.27787 3.51368 0.760334 6.93836 2.26125 3.87117 5.94543 2.78407 5.45004 3.22199 0.587991 1.87195 8.54667 4.70623 8.21896 6.87371 0.462812 2.12104 2.86554 2.31539 2.60695 0.853491 6.37925 4.16144 6.31317 3.1622 3.96281 0.44221 1.05415 6.87013 3.84432 0.429005 3.87829 3.80756 1.73226 2.75081 6.34026 2.68135 4.33118 1.78988 1.71289 4.10806 7.0629 2.07545 5.72453 0.725499 4.05565 7.23524 4.81753 1.31665 0.942856 1.17012 9.2792 1.93494 2.91741 6.50424 3.96148 2.57023 5.66441 2.8084 0.499367 0.973483 7.99598 2.26236 7.75253 0.892752 1.72302 1.39285 5.54024 1.55089 7.50565 1.12115 1.19833 1.96405 2.05416 1.17631 1.77082 2.76456 4.72197 5.59406 3.06874 3.70595 0.495465 1.31066 0.86806 7.3389 0.921036 3.66055 7.35854 2.67898 8.99883 1.557 2.53779 9.49774 4.86371 5.27109 6.50424 2.37435 1.18464 3.35897 1.23488 2.91809 3.50225 6.5099 0.126983 9.74277 0.974403 3.65412 6.8054 1.71159 3.60551 5.24225 1.32559 0.410946 3.02169 1.59338 1.06583 4.76818 2.16256 1.80819 1.59505 6.48648 0.161112 8.43727 1.70224 3.23323 6.05462 1.9249 1.03242 3.16828 3.44976 0.461351 0.570039 2.43245 6.68426 2.25199 1.37798 3.17315 1.87543 3.30137 5.73334 1.21665 3.98172 4.34984 5.76407 1.68868 6.42834 1.56007 5.37137 1.59256 4.3895 5.95393 3.78065 0.305895 1.85682 5.42219 4.14929 1.42778 4.72419 1.4998 4.8883 1.17997 0.748255 5.4055 4.05956 3.94594 4.93077 2.37435 2.91741 1.29224 3.35776 1.43404 7.72408 2.1264 3.35776 2.47547 2.95178 7.91338 0.407217 10.3819 1.68795 1.12118 3.84328 5.21796 1.32574 3.38506 3.26523 4.7642 1.15183 0.983645 6.94644 3.10056 9.42829 2.57198 0.427177 6.16962 0.731372 0.379633 7.73523 2.20539 6.28123 0.781214 1.11201 0.853491 0.24873 7.18751 2.171 0.609114 0.434041 0.81998 1.31665 6.81462 1.90055 0.460478 1.56218 7.91338 0.609934 5.24712 2.19323 2.16957 0.617054 0.249725 3.31013 5.80051 3.82498 0.432219 3.87753 6.34426 2.23449 5.58009 4.91349 0.734461 2.54936 1.56963 3.60408 7.747 0.376975 2.61494 5.30494 0.553112 5.14928 0.630836 6.50048 6.56666 4.8883 5.04379 1.50208 4.99531 0.757403 1.45859 1.42143 9.82352 0.731438 1.21491 1.25528 4.64724 5.4352 3.38136 8.53582 0.648666 9.42829 0.368489 1.07596 6.66775 1.9855 3.03357 0.517985 1.19291 9.3249 1.49432 9.05014 0.668297 0.465988 3.86869 4.78811 6.02036 3.18231 0.539635 4.93519 6.12369 1.85101 6.12369 0.80182 0.579008 3.68856 5.38346 4.61954 1.58471 4.24498 0.484874 0.0292827 0.178849 6.71974 2.2448 2.19688 2.05627 0.472201 8.97027 3.60475 0.483732 8.68204 0.783218 0.901951 4.74628 3.30137 3.82503 1.09045 5.2661 1.17335 1.97859 1.68627 0.41768 0.580261 9.68283 1.91535 5.05459 0.915824 0.669751 4.85766 8.68204 0.718977 7.35854 0.659931 5.1429 4.61684 0.519369 5.26667 1.85027 3.67629 6.12806 0.962094 4.75936 1.14439 3.92223 7.3363 0.668297 2.71956 0.849231 1.17997 5.51046 0.188954 8.9047 3.25423 1.53561 1.23488 1.49701 5.73936 0.658333 5.26667 1.99841 4.16625 1.72773 6.50064 0.431308 3.62974 1.26174 2.94692 1.59412 0.771195 7.7458 2.48125 7.13241 2.30067 3.39105 6.41008 5.63703 0.635773 0.75274 3.20963 4.85427 0.667012 2.26236 3.30762 1.10712 2.97133 0.407217 1.18404 7.13241 4.12482 5.62616 0.722815 8.66071 6.81462 4.81753 0.553517 0.410946 0.620315 4.54031 0.215966 1.90838 0.845856 7.42419 5.68052 0.569416 9.75275 0.102138 2.57593 0.506839 8.45601 0.471487 6.90297 0.618617 1.94507 0.218567 3.51368 4.77352 1.7685 4.72357 5.51287 4.99531 6.9073 1.59412 1.18404 3.56064 3.88948 7.32864 0.740044 8.54667 4.04027 0.869442 1.88532 4.59392 4.7189 0.230084 0.126983 3.09155 5.68805 1.0963 1.24007 4.66604 3.32864 7.24544 2.34543 3.66283 3.88891 2.00863 0.172067 7.82334 2.49027 3.81187 6.05462 2.38987 7.82241 0.647449 2.1724 6.30325 2.06266 6.34426 3.4453 4.0347 2.64394 0.541084 7.17227 4.7337 0.281705 7.96546 1.21491 7.0944 0.707995 5.31554 2.05589 1.39192 2.70626 4.35182 2.68135 4.22758 2.06584 8.45601 1.91735 5.10692 4.38734 1.54089 5.69019 1.85217 8.22779 0.141949 3.09075 1.88647 2.87916 0.775113 0.319771 4.56699 6.45371 1.59155 9.94999 1.51234 6.71809 3.52321 0.255201 1.02915 0.964937 5.95393 3.87188 4.32669 0.826852 3.08388 6.71809 4.78012 3.07964 4.79541 4.75522 3.82503 1.87543 0.349644 6.90608 2.81697 3.84535 5.94543 0.731438 6.58156 2.62303 3.47741 7.0944 0.952207 7.20563 0.691596 4.62895 2.63214 4.62527 0.457016 8.1306 3.08474 0.690077 5.19669 5.51679 1.18464 7.72408 2.43134 2.01622 1.06583 5.00572 0.310651 1.97237 2.81697 3.28395 3.88891 7.0175 4.40684 4.91349 2.48926 0.519369 7.52319 3.38037 3.90935 0.983645 5.09014 0.427177 7.26361 3.77783 9.45781 0.434041 8.6021 2.17783 5.21326 0.608129 3.58214 3.30896 2.05627 2.96268 6.54048 2.95551 4.51881 0.513287 2.03343 2.45883 5.02505 2.31551 5.50394 3.87619 0.943847 0.91907 5.84441 5.65408 4.24498 6.155 3.24574 7.95105 0.923349 3.63851 6.64641 1.34928 0.760334 3.84535 1.97237 0.581861 4.02189 4.43378 6.45371 0.651731 1.90838 4.74059 6.55723 1.07255 1.91735 6.58742 2.19431 7.63904 1.59338 2.62995 0.690077 1.139 3.26349 4.92855 1.28439 2.46739 3.30374 0.635773 6.18522 1.99884 4.32492 6.02036 1.06989 1.72636 0.63421 3.24574 6.20082 2.05805 4.98237 7.03946 2.19061 5.65025 2.55207 2.43245 3.7724 2.62725 6.73795 4.57248 2.79076 1.557 1.33306 2.85617 3.59247 0.725499 1.5066 4.41758 3.81386 0.667012 3.56377 3.63926 3.82795 0.639494 7.75253 1.01506 2.62094 4.01346 4.79527 7.18751 3.24928 5.65408 0.652329 1.49701 3.35897 2.0959 1.23407 1.03688 5.19669 2.62995 3.02169 0.553517 7.23524 5.14928 0.6514 0.539635 1.39768 1.52815 5.70305 0.631794 4.28771 0.30814 8.15698 2.49878 0.966282 4.07615 3.46603 0.587991 3.10909 7.86623 1.10607 2.1724 5.81464 0.722815 2.45777 0.579008 3.87074 0.475941 1.96783 1.82755 2.51931 6.16322 0.460478 0.486634 5.70777 2.38987 1.07393 2.59935 0.426469 9.54111 7.42419 6.8975 1.23278 3.54716 1.16629 2.1294 2.33117 1.19833 5.34418 4.59392 7.19716 4.82626 1.08878 1.18084 3.39105 7.82485 4.08528 7.99598 3.09718 5.63728 2.87459 4.89934 2.52567 1.19291 2.02072 0.789385 4.05956 1.923 7.11943 4.66162 2.16256 3.01753 2.51818 3.78065 0.964937 3.54396 5.55354 1.38905 8.40128 1.77082 5.14108 5.59408 2.11283 6.14286 6.56085 1.13856 1.25528 2.70626 7.34522 1.72302 5.68737 3.60551 3.96453 6.22445 6.20082 1.48881 0.840172 1.49432 0.674182 4.35084 2.17783 2.19688 3.65164 0.513287 6.31033 0.102138 0.568121 9.00433 1.53714 0.674182 0.0787452 7.59904 1.17108 1.96607 0.829994 7.96546 1.01865 1.63387 0.997605 4.74325 2.42611 1.78254 2.05589 0.553974 2.75081 3.52827 1.42778 6.89693 2.2448 6.10669 2.76058 2.96268 3.65164 4.35084 1.53714 2.94055 3.61238 5.21326 0.0787452 6.31033 4.51881 1.73596 0.532572 4.57248 1.92371 4.04027 1.87195 3.46603 3.95907 6.42631 6.96173 1.12253 4.712 6.27082 0.495465 5.62386 5.48624 0.198578 0.022985 2.94047 5.74398 4.57092 0.951692 5.72513 3.00529 0.766573 4.07558 2.40294 3.8508 2.85104 4.7189 1.06496 6.7447 1.48881 7.03946 0.563096 5.59408 4.20389 1.93312 0.83899 0.110716 2.791 4.86371 0.310651 2.57791 1.04346 8.21896 0.771195 7.32864 2.48577 6.28123 2.00733 0.460437 6.23867 5.82694 3.63926 2.61102 0.630836 4.28771 5.12449 1.55963 0.974403 1.30199 0.593116 5.26626 3.55264 6.33792 1.59023 3.98176 5.72513 2.54324 6.398 0.615525 2.43134 1.43404 2.1264 1.56218 0.570835 5.28258 2.49878 3.04515 1.93565 7.24544 0.211621 7.3134 3.81383 5.74233 1.12118 0.886082 0.845856 0.651731 4.56699 6.60538 6.8975 3.58214 3.83954 5.0985 3.25423 1.14308 2.02891 2.73187 0.975997 5.3564 6.398 1.84239 2.16583 7.57102 0.942856 0.81998 9.45781 1.14027 5.55771 5.77189 0.931634 4.32669 4.24047 4.77352 4.27787 3.05494 2.40294 6.89287 6.32833 2.62465 7.28453 7.20516 3.17585 0.942855 0.022985 2.01622 0.615525 5.3564 5.63838 3.01753 4.76818 2.95178 9.53386 0.841219 0.628988 0.834213 5.76407 0.645429 0.609934 6.16962 5.09014 1.15183 8.11835 1.23278 6.60538 0.319771 0.24248 2.67898 0.586481 3.94372 4.61954 0.512765 1.67694 6.94644 3.90935 1.3243 6.96173 1.25819 3.87188 5.42219 5.14524 3.06455 0.534063 0.553974 5.31554 3.36318 4.22758 6.34026 2.56829 4.62744 3.47589 1.17997 0.627385 4.49126 0.666826 1.80564 0.613088 0.569416 2.06584 3.36318 0.707995 3.47741 8.18286 3.82498 2.91039 3.89407 6.89614 3.18897 6.56085 2.51303 1.81997 2.01491 8.83601 0.432219 6.89614 0.440127 6.76515 2.54604 2.67114 0.613088 2.23217 3.27066 0.995551 3.11679 0.568121 9.75275 0.388513 0.71796 6.23867 1.29052 0.513861 4.25912 6.48154 0.586481 9.49774 3.55986 5.43441 1.81411 1.8965 3.44164 5.26423 2.59935 2.79098 2.98719 1.45296 0.766573 5.56589 5.42667 3.09075 3.37716 0.218567 9.04352 5.85155 4.82626 0.852438 2.86178 4.29494 0.552921 5.24712 0.645429 4.34984 4.74325 5.08865 2.02072 0.517985 8.03116 4.15595 6.37925 1.11201 2.4567 3.50225 0.24873 9.54111 3.15262 4.92855 3.79684 1.01506 2.20539 2.84351 3.81386 0.741606 6.68555 0.711924 2.00733 0.688152 6.39021 2.94047 0.942855 1.34835 5.10692 1.07255 0.512765 6.71974 1.86854 1.20902 1.11629 0.731704 0.536753 3.54716 2.87916 6.27819 2.49062 1.0497 4.75936 0.67604 1.85756 7.0804 0.386373 0.921036 7.16646 4.19071 0.842866 1.9856 0.559651 0.644532 1.39285 7.34522 1.71159 7.63904 1.63347 1.82755 6.6685 2.24214 0.667886 9.07358 0.659931 3.66055 0.386373 0.536295 2.34543 1.93565 0.85441 4.17767 5.24528 0.651717 8.97027 2.69335 7.29928 1.56963 1.37129 9.07358 1.67841 3.6965 3.60408 1.8016 4.8611 4.95275 4.16625 1.25885 1.59256 2.47547 1.29224 1.93494 7.53277 9.53386 7.15704 0.80038 6.68426 2.55207 1.34724 0.864966 0.666826 2.7222 5.0964 3.37804 4.02189 0.215966 2.93149 2.05408 2.15125 1.56007 3.40054 1.33235 0.580261 2.10624 5.86744 0.997605 6.8186 1.29335 0.829045 3.94594 0.789385 5.08865 4.75722 1.10712 1.35323 0.376975 0.541121 5.63728 3.51458 2.25876 11.6769 1.5926 3.98439 4.74059 1.13899 1.50838 3.43244 4.61449 5.24432 2.64394 2.69657 3.0903 6.51285 1.31635 0.783432 2.38284 3.7724 0.570039 2.791 4.5719 0.880937 3.31197 3.96148 5.27109 0.536753 8.96244 0.358579 5.05459 3.41423 1.16629 5.70305 5.4631 5.66147 7.32961 2.19431 6.80089 1.8016 0.553112 6.86297 1.9856 3.36598 4.42292 1.78683 1.27706 8.22779 7.95105 0.63421 2.76307 0.555554 8.89423 4.31668 1.01654 2.45883 1.90529 2.87459 5.4055 1.88647 5.42667 1.30178 1.40168 2.78755 6.27819 1.85997 3.06883 2.93149 4.54031 0.494306 4.79541 0.559651 6.86297 5.30494 7.35664 4.07148 2.86178 3.98172 8.12334 2.60446 6.14711 2.14406 0.305895 2.51818 0.280006 6.31317 3.58501 5.18145 1.70224 0.549955 3.3373 2.04464 1.24007 4.30868 1.85208 0.211621 2.37575 0.499367 6.41941 3.87117 6.36755 2.50649 4.712 1.03984 0.349644 2.8981 1.64744 1.09153 2.25876 1.99843 1.72773 4.95275 0.452827 8.12334 1.21665 1.94794 1.38905 0.563096 4.98237 0.764755 0.731704 5.96724 1.07596 3.24385 8.96244 0.627385 0.849231 6.08556 1.73156 1.56009 1.9249 0.80038 7.4152 1.21583 6.50048 5.26626 12.5259 6.19771 1.29052 2.61102 3.56377 4.85427 0.807384 6.68717 5.48624 1.88683 2.94084 3.58501 2.38284 7.98895 0.409313 3.67629 0.748779 5.34594 2.19061 0.451236 6.7447 1.86354 5.66441 0.86397 1.67841 0.667886 2.05271 0.86772 7.26361 2.57198 0.648666 1.40335 0.966282 5.28258 3.32864 0.808677 6.08556 2.71956 0.504366 1.14459 7.20516 3.5004 1.53774 4.3895 1.25885 2.94692 4.81064 0.641148 2.10437 5.73334 4.74628 4.60026 1.71279 0.504366 8.9047 1.70142 3.62974 6.88353 1.90529 2.03343 3.10192 6.58704 4.89934 4.49126 7.4152 7.15704 1.85208 2.5931 4.17767 3.5308 7.3134 3.52827 1.71289 4.67759 2.34241 4.72419 0.349817 4.16353 1.92522 7.07537 5.55578 2.06935 0.388513 3.47166 0.841219 7.53277 9.2792 5.52617 2.0481 0.995551 5.46186 2.12104 3.24371 0.687801 2.78407 0.740044 5.34418 1.12115 2.24862 9.0074 0.509619 8.0753 2.19666 0.262891 2.19323 0.552921 8.19863 0.198578 6.68717 4.72857 0.914898 1.73156 0.808677 7.28453 4.33488 7.66666 3.34901 3.36598 1.85217 1.77999 12.0277 0.0292827 1.74026 8.18737 1.83382 5.00572 6.48648 1.46015 2.22931 2.57791 1.73436 2.25393 7.59904 1.92371 6.73795 1.63387 5.45076 5.51404 6.8186 2.378 5.97432 2.05271 2.24214 6.14715 5.45004 0.687801 2.36767 5.21796 5.59097 3.98439 1.60662 4.27839 0.503437 0.688152 6.55723 2.89036 4.64748 3.46106 3.61614 6.66461 2.23217 1.80564 1.77894 2.50626 2.31539 6.08038 2.4567 3.16828 5.08249 2.46887 5.70745 3.60475 0.651717 2.54936 3.68669 0.307095 6.10669 4.72857 0.807384 2.04464 4.38951 7.01037 3.17315 6.74184 0.775307 3.58396 1.85997 3.07964 0.71796 2.06935 1.17012 3.31197 2.04983 3.82795 5.82694 2.171 4.79527 0.747194 3.97095 8.87292 0.230084 2.85104 4.79524 1.79611 1.30199 9.74277 0.50273 6.9073 1.50208 2.18364 1.71279 5.96445 3.08039 5.55578 1.10076 4.42948 0.617054 0.541084 5.24432 0.34696 6.87371 1.04346 2.22931 2.98968 7.86623 3.10192 5.50394 4.3456 0.669751 3.86893 1.08984 0.799784 3.5879 3.66926 2.00958 0.764755 2.05805 6.22445 1.94507 1.47465 7.17227 0.829994 0.504242 1.05744 9.04352 0.842866 10.2096 3.44976 2.4567 5.22907 1.70142 0.188954 5.94154 1.69819 0.943847 1.12969 4.81064 1.26174 0.789504 9.68283 1.33235 1.80219 0.844986 7.7458 0.460437 0.711924 1.54037 8.006 0.18511 3.09155 6.8054 0.631794 7.32961 0.628542 1.73596 2.95551 0.408283 5.12449 2.36767 9.0074 1.0878 0.513861 6.19771 3.20963 1.32574 0.874587 3.55264 0.951692 1.0747 0.368489 3.10056 2.41166 6.00707 3.6965 0.86397 2.57023 4.08528 0.541121 7.747 4.66604 6.41941 2.8084 1.86354 1.06496 3.94372 1.8965 4.73163 1.99884 6.155 1.58471 3.27066 6.08038 2.86554 5.46186 5.51046 3.47589 4.34729 5.94154 6.58742 5.69019 5.51719 1.13899 1.01559 2.24444 3.00448 5.4352 5.56887 2.97929 6.00707 3.57864 4.11104 3.43244 6.68555 3.7823 2.89036 1.95269 1.09045 0.789504 3.00529 3.98176 0.742682 2.54604 1.20059 1.30178 5.56589 1.80219 3.40054 6.42834 1.53774 8.57493 0.867593 12.5259 0.593116 1.79611 6.66817 2.378 3.37635 0.475941 1.96405 2.33117 3.87805 0.907171 1.78683 7.13308 0.783218 4.85766 4.3456 2.31551 1.10503 6.87013 1.17718 0.307785 7.52319 4.61684 0.906021 5.68805 0.18511 0.904323 2.46887 3.05542 4.62527 1.75215 6.64641 0.731372 8.11835 4.7642 0.80909 3.57864 2.41166 3.87753 2.67114 0.742682 1.59023 3.68402 3.4453 2.46364 0.880861 2.62199 0.504242 1.78254 0.809688 6.44705 1.99843 1.50838 5.51719 1.54089 3.87936 6.50064 2.91141 7.16646 7.3389 6.18995 2.25771 5.01462 2.57667 0.379633 2.60695 2.50626 1.89223 0.358579 3.24385 9.3249 2.52567 6.58704 3.86893 0.915824 2.26125 0.691547 5.14524 1.85682 2.14406 1.16617 6.36755 0.844986 8.57493 3.5004 3.83766 0.945546 4.12482 2.48125 1.14383 8.19863 4.29494 4.07148 0.452827 2.00958 1.33947 3.11679 2.0481 3.70091 2.94055 9.00433 0.91388 2.50408 0.895275 0.446822 6.58156 9.82352 0.24248 9.94999 0.934807 1.73436 2.62725 8.99883 3.08474 5.6063 6.16322 4.60968 1.139 0.608129 3.61238 3.70091 5.52617 1.42957 3.83954 2.07004 6.96949 0.83899 4.70623 0.34696 3.10909 0.620315 1.32559 3.37804 2.98521 1.17108 2.25393 0.934807 1.59155 4.43378 2.62199 7.52485 2.55643 1.08878 5.85155 1.05744 0.869442 6.42631 0.710337 3.38136 1.0747 4.57092 2.62465 1.36751 1.51037 4.20389 5.14108 1.17631 0.382066 7.66666 0.658333 5.49245 3.40366 2.56829 0.864966 4.83747 0.748779 1.85027 1.25819 6.27082 2.50649 1.16617 6.14711 0.724455 1.65299 2.97929 2.69657 4.0347 3.68402 6.33792 0.874587 6.49513 6.74715 2.46739 1.73695 0.963453 1.14027 4.78012 1.51234 0.534063 3.18171 4.62895 4.11464 5.0985 1.42957 3.24371 0.462812 4.15595 2.91809 1.53561 1.77894 8.18286 2.62303 0.446822 8.26163 1.89223 6.66817 4.79524 3.8508 0.451236 5.97432 2.76058 0.307095 1.08258 1.54037 3.65412 1.55963 0.408283 6.54048 2.42611 8.03116 3.03357 3.26212 0.833901 1.77999 1.90369 0.809688 6.01044 0.809527 3.47537 1.08984 3.96453 4.78811 5.73936 0.652329 5.84441 2.76557 5.49245 2.89518 2.23449 7.29928 1.36706 7.98895 0.783432 0.494306 5.68052 2.1294 3.41423 1.91535 0.483732 4.75522 5.24225 5.68737 0.892752 0.639494 2.04983 0.880937 9.12971 2.07004 0.840172 1.93312 1.51037 4.33488 0.775113 0.67604 0.962094 9.05014 0.581861 7.0175 3.66283 0.536295 7.0804 1.36265 2.97133 4.75722 5.12678 10.3819 4.73163 1.81411 2.97818 1.39768 3.18231 4.32492 1.92522 6.13 0.724455 2.60446 4.16144 1.96928 2.09751 0.880861 2.32947 2.05564 3.97095 3.34761 7.52485 3.26349 4.60968 2.51931 1.63347 1.37129 6.80089 4.19071 2.91141 0.68876 3.0903 0.461351 10.2096 5.81464 0.647449 5.51766 0.486634 1.90055 8.66071 1.08258 3.68669 0.734461 4.40684 0.307785 8.006 4.11464 0.691596 0.26813 6.47433 1.31927 5.55771 3.58396 7.37694 3.30782 2.7222 3.06883 2.76307 1.72636 2.14137 1.84239 3.77783 0.898138 6.79117 5.22907 5.70745 0.904323 3.63851 1.36265 1.85756 1.59505 6.32505 6.30325 1.10607 2.98968 1.46015 7.57102 3.12755 5.51679 1.03688 4.05565 1.75215 2.63214 3.18171 3.06455 0.691547 6.93836 1.34928 0.945546 5.62724 1.23407 1.02793 3.56064 5.62616 4.7337 1.47465 0.618617 5.19259 1.08674 6.78807 0.923349 8.89423 2.61817 7.04586 1.74026 0.484874 0.68876 6.18995 0.86806 4.28353 6.51285 3.37635 6.14715 6.6685 1.96783 0.431308 3.87936 4.38734 1.34835 3.17585 1.14459 6.88353 2.61817 0.555554 6.79117 1.62623 2.32947 2.46364 2.09653 1.40393 5.1429 5.24528 2.5931 4.30868 1.0963 0.906021 0.472712 0.91388 1.42143 3.00448 6.41079 0.529805 7.0629 1.39192 6.89693 4.14929 6.84411 2.11283 2.91341 5.96445 4.60026 0.901951 1.17718 1.73226 1.99841 6.12806 0.409313 1.36706 2.69335 0.472201 3.30896 1.14308 0.914898 7.01037 1.34641 0.952207 3.05542 5.08249 1.03242 1.56009 5.70777 5.51766 7.82241 3.68856 2.45777 5.6063 8.1306 0.409927 0.722478 0.548768 3.05494 1.99879 0.75274 3.30374 6.74715 3.55986 2.53779 2.79076 0.532572 0.628542 5.66147 3.31473 3.36373 2.95835 1.73695 1.28439 3.15262 0.426469 5.26423 1.03984 1.12253 1.3243 3.38037 0.86772 2.00863 3.28395 6.90608 4.16353 2.25514 3.38506 1.67694 1.65299 6.13 1.37798 2.96273 4.67759 1.78988 2.67197 6.74184 1.4998 2.34241 2.96273 2.25199 2.10437 2.18364 5.04379 4.07558 3.37716 0.141949 1.27706 0.907171 0.703146 6.89287 0.710337 3.95907 4.07615 1.40335 8.53582 
</DataArray>
<DataArray type="Float64" Name="wall variable 0" format="ascii">