<VTKFile type="UnstructuredGrid" version="0.1">
<UnstructuredGrid>
<Piece  NumberOfPoints="    2460" NumberOfCells="     412">
<Points>
<DataArray type="Float64" NumberOfComponents="3" format="ascii">
-1.34127 -7.55609 0.0
-2.52833 -9.90195 0.0
1.45661 -20.648 0.0
3.00637 -20.3767 0.0
3.11692 -20.1159 0.0
0.780572 -11.5477 0.0
-0.376125 -7.48102 0.0
-1.01863 -7.41157 0.0
25.1785 23.017 0.0
25.329 22.5582 0.0
27.5325 18.8653 0.0
27.869 18.8489 0.0
28.3751 18.8619 0.0
34.2613 21.2332 0.0
34.7169 22.8395 0.0
-3.80564 -49.8925 0.0
-3.37502 -48.5359 0.0
-11.218 -49.7728 0.0
-13.2931 -52.2539 0.0
-12.9492 -53.2052 0.0
-7.59893 33.753 0.0
-9.97697 30.149 0.0
-1.13678 31.2714 0.0
-0.717959 31.7273 0.0
-1.38916 33.4694 0.0
-4.51717 35.5589 0.0
-4.82456 35.3784 0.0
-31.0072 -43.0621 0.0
-30.5379 -41.2577 0.0
-36.4662 -39.1873 0.0
-36.7427 -43.3978 0.0
-34.5553 -43.6097 0.0
24.1045 -39.2642 0.0
18.3154 -41.051 0.0
16.9507 -45.3745 0.0
18.9416 -44.8305 0.0
19.7191 -44.5876 0.0
25.2301 -39.7541 0.0
9.84136 -1.93485 0.0
9.20086 -4.49823 0.0
10.1441 -5.7408 0.0
17.3401 -2.94382 0.0
17.4335 -2.67763 0.0
17.43 -1.81628 0.0
30.2145 -33.8802 0.0
28.4248 -32.0139 0.0
24.2983 -38.0098 0.0
24.7851 -38.6484 0.0
25.9108 -39.1383 0.0
26.8759 -39.1458 0.0
28.6335 -36.6414 0.0
-14.9976 53.3501 0.0
-12.8425 54.4103 0.0
-10.9372 56.469 0.0
-11.1621 57.7448 0.0
-12.3453 59.1579 0.0
-16.6019 56.2585 0.0
-50.1585 6.69547 0.0
-50.8653 8.2921 0.0
-56.6885 6.44895 0.0
-56.7394 4.3398 0.0
-50.9393 4.76544 0.0
7.2601 27.6534 0.0
10.9233 26.9451 0.0
11.4174 30.4951 0.0
8.61681 30.5871 0.0
5.7363 30.5879 0.0
5.64924 29.0589 0.0
5.99283 28.5928 0.0
0.219527 -27.572 0.0
-0.188657 -28.7312 0.0
5.58948 -32.6121 0.0
7.06498 -32.1279 0.0
7.63861 -30.0175 0.0
4.55257 -28.4191 0.0
-52.1193 14.8679 0.0
-53.2855 11.3437 0.0
-51.0063 10.0227 0.0
-47.4329 16.6326 0.0
-22.083 -26.6316 0.0
-19.1192 -26.7055 0.0
-17.5618 -21.6599 0.0
-22.6716 -19.9223 0.0
-23.772 -22.1944 0.0
-24.4464 -24.8217 0.0
36.4094 -12.1781 0.0
34.6818 -12.1785 0.0
34.5529 -12.4718 0.0
35.8742 -17.9078 0.0
36.484 -18.5169 0.0
39.3081 -17.4295 0.0
40.4458 -16.5596 0.0
-44.9928 -5.85726 0.0
-45.0074 -5.90178 0.0
-43.9692 -9.02962 0.0
-39.4703 -12.8661 0.0
-37.8985 -13.9288 0.0
-37.097 -13.7254 0.0
-36.114 -11.2243 0.0
-36.4857 -10.2161 0.0
-39.193 -8.80328 0.0
-11.2257 29.0913 0.0
-15.5209 27.6091 0.0
-15.6109 21.5614 0.0
-11.2985 24.82 0.0
-10.9616 25.371 0.0
31.1245 5.9997 0.0
36.0623 6.27664 0.0
39.6823 7.41129 0.0
39.5088 7.85427 0.0
34.4633 9.53273 0.0
16.5229 -59.9727 0.0
18.087 -59.7128 0.0
19.3499 -58.4528 0.0
20.2424 -56.0063 0.0
20.3385 -54.8198 0.0
18.8232 -52.6041 0.0
16.4782 -52.1889 0.0
16.3198 -52.3211 0.0
28.1762 -31.8584 0.0
27.5675 -31.1323 0.0
22.7151 -33.7795 0.0
22.1716 -35.9708 0.0
24.0497 -37.8544 0.0
-38.956 -8.44179 0.0
-36.2487 -9.85459 0.0
-35.7631 -5.72018 0.0
-36.3287 -4.69881 0.0
-40.4672 -3.59451 0.0
-42.1472 30.5135 0.0
-39.1064 30.6433 0.0
-37.5282 31.1727 0.0
-36.8947 32.5407 0.0
-36.2052 36.4864 0.0
-36.9217 37.3562 0.0
-37.532 37.0716 0.0
-36.0796 39.8321 0.0
-36.3274 38.2701 0.0
-35.611 37.4004 0.0
-31.6376 40.7495 0.0
-28.8067 47.3899 0.0
-29.0921 47.8035 0.0
-30.4928 47.4821 0.0
-22.9841 10.5748 0.0
-21.7738 11.4712 0.0
-22.7736 17.5769 0.0
-26.5397 16.5859 0.0
-10.1339 29.7564 0.0
-10.5433 29.381 0.0
-10.2791 25.6607 0.0
-3.06377 28.2802 0.0
-2.5815 28.6535 0.0
-1.29369 30.8788 0.0
6.03125 54.8388 0.0
7.94295 54.1845 0.0
12.807 57.0633 0.0
7.28143 58.5947 0.0
3.29558 58.8378 0.0
3.83328 57.976 0.0
-30.8641 -0.202117 0.0
-28.8961 -0.506761 0.0
-27.5265 2.49698 0.0
-32.5875 7.52037 0.0
4.54956 19.7712 0.0
4.16222 19.9211 0.0
0.338677 19.4064 0.0
-2.00565 12.4774 0.0
-2.12814 11.1419 0.0
0.409987 12.5806 0.0
2.93363 14.1531 0.0
-16.7188 42.6703 0.0
-20.6273 43.3633 0.0
-22.9135 39.7159 0.0
-26.0252 34.612 0.0
-24.4956 34.9754 0.0
-16.6158 41.9492 0.0
51.3803 4.18669 0.0
51.1898 4.39106 0.0
45.965 0.36092 0.0
46.1074 -4.33143 0.0
49.1567 -1.19022 0.0
3.7817 32.4708 0.0
4.1863 32.4529 0.0
6.38178 38.2182 0.0
3.2495 42.1368 0.0
2.30379 39.7417 0.0
-36.292 32.429 0.0
-36.9255 31.0611 0.0
-34.7656 29.3156 0.0
-30.0777 30.5462 0.0
-29.0145 32.751 0.0
-29.3546 35.4993 0.0
-29.7879 35.759 0.0
16.2979 40.5753 0.0
20.2611 38.6418 0.0
20.8311 42.3757 0.0
21.3334 45.6403 0.0
17.9321 46.75 0.0
17.1251 46.5828 0.0
15.766 44.3558 0.0
15.6421 44.0864 0.0
4.11177 -40.4669 0.0
2.92952 -38.1344 0.0
0.619376 -35.13 0.0
-0.292988 -34.7445 0.0
-1.50353 -35.2881 0.0
-2.68103 -37.5504 0.0
-2.58661 -40.4048 0.0
0.748468 -40.4818 0.0
20.6386 -25.9148 0.0
26.7835 -23.3739 0.0
27.134 -20.7793 0.0
21.6758 -22.4892 0.0
21.396 -22.6566 0.0
19.4274 -24.7667 0.0
20.4781 -25.8562 0.0
-49.9675 -7.79498 0.0
-48.2274 -7.07192 0.0
-46.0406 -5.37735 0.0
-46.0261 -5.33282 0.0
-46.0475 -4.89968 0.0
-51.6033 -2.22574 0.0
-54.6691 -3.20694 0.0
-55.0054 -4.12005 0.0
-47.9014 -20.4491 0.0
-48.0266 -20.6526 0.0
-47.2298 -25.2779 0.0
-45.2834 -30.8742 0.0
-43.6107 -30.3388 0.0
-43.0233 -26.0914 0.0
35.4963 -37.4843 0.0
33.1388 -40.1658 0.0
38.7929 -43.7655 0.0
39.9782 -43.2149 0.0
45.3928 1.33298 0.0
45.1702 5.51174 0.0
42.646 4.95138 0.0
41.6907 -2.45318 0.0
-14.0909 45.7885 0.0
-15.8024 43.0413 0.0
-15.6994 42.3202 0.0
-15.3832 41.9475 0.0
-10.1755 41.3324 0.0
-8.7597 41.9978 0.0
-7.95974 44.4792 0.0
48.7503 -9.60677 0.0
46.531 -8.75203 0.0
45.8523 -15.9389 0.0
47.2622 -16.2801 0.0
48.4228 -15.8447 0.0
54.4825 14.5825 0.0
53.8602 17.0777 0.0
49.9492 18.5957 0.0
49.5367 17.1171 0.0
49.9102 14.8426 0.0
50.9642 11.641 0.0
54.8725 14.8929 0.0
55.2973 14.5543 0.0
58.5957 18.9943 0.0
53.6133 22.3087 0.0
54.2502 17.3882 0.0
-41.9084 -25.328 0.0
-42.5583 -26.3495 0.0
-43.1457 -30.597 0.0
-40.2753 -31.6111 0.0
-37.3644 -28.789 0.0
5.54495 -57.3066 0.0
7.54719 -54.9424 0.0
7.6859 -54.5354 0.0
4.4048 -45.623 0.0
3.46125 -45.9144 0.0
39.4435 2.94003 0.0
39.0492 1.52029 0.0
40.5425 -4.75512 0.0
41.1094 -4.48079 0.0
41.405 -2.5705 0.0
42.3603 4.83406 0.0
40.9671 5.42547 0.0
22.7123 -15.3651 0.0
19.98 -16.892 0.0
21.318 -22.1207 0.0
21.5978 -21.9534 0.0
26.2141 -16.5413 0.0
23.873 -15.3559 0.0
51.1827 11.215 0.0
51.005 8.92144 0.0
57.3286 9.96827 0.0
55.1259 13.8177 0.0
54.701 14.1564 0.0
12.9148 37.7185 0.0
14.4555 38.3337 0.0
15.7 40.3207 0.0
15.0442 43.8318 0.0
12.0372 43.0356 0.0
7.99602 38.897 0.0
28.9898 -36.8963 0.0
27.2323 -39.4007 0.0
28.2149 -40.2081 0.0
28.4263 -40.3677 0.0
32.5846 -39.9374 0.0
34.942 -37.2559 0.0
35.1772 -36.9304 0.0
1.1118 -11.7737 0.0
3.44814 -20.3419 0.0
4.98 -18.9292 0.0
5.59932 -15.3607 0.0
9.86648 -7.51094 0.0
9.35892 -10.6679 0.0
11.5233 -11.8611 0.0
12.3598 -12.0036 0.0
14.9979 -7.99692 0.0
-20.6439 53.4244 0.0
-20.3943 53.812 0.0
-19.722 58.848 0.0
-26.9022 50.7796 0.0
-17.882 -27.2479 0.0
-13.4485 -29.286 0.0
-11.1313 -27.1124 0.0
-10.9854 -25.1387 0.0
-12.1316 -24.1456 0.0
7.924 -18.4697 0.0
13.9933 -17.623 0.0
12.8688 -13.3984 0.0
12.3158 -12.6478 0.0
11.4792 -12.5053 0.0
-1.72826 28.7479 0.0
-1.4296 28.0792 0.0
3.53079 27.3503 0.0
4.97088 29.1108 0.0
5.05794 30.6398 0.0
4.96168 30.8264 0.0
3.96116 31.6546 0.0
3.55655 31.6725 0.0
-0.0216307 31.4291 0.0
-0.440454 30.9732 0.0
39.0339 41.2301 0.0
38.9516 39.9891 0.0
45.5624 33.4028 0.0
46.9635 32.7899 0.0
46.7834 34.2792 0.0
42.9854 41.2596 0.0
40.4196 42.8343 0.0
30.9541 39.1534 0.0
35.4071 37.5595 0.0
36.361 37.2514 0.0
38.1951 40.129 0.0
38.2774 41.37 0.0
35.2434 41.8196 0.0
13.3806 -13.1988 0.0
14.5051 -17.4234 0.0
15.338 -18.114 0.0
17.1635 -16.9283 0.0
19.316 -12.1396 0.0
19.7897 -9.55602 0.0
45.5437 0.0347416 0.0
45.4282 0.805356 0.0
41.7262 -2.9808 0.0
41.4306 -4.8911 0.0
45.0631 -6.06364 0.0
45.6861 -4.6576 0.0
28.366 18.1569 0.0
27.8599 18.144 0.0
28.5291 10.871 0.0
30.1284 11.4923 0.0
32.3389 14.0728 0.0
26.5832 -47.7843 0.0
25.3253 -48.3254 0.0
25.7122 -53.1743 0.0
31.1196 -52.3205 0.0
31.4712 -51.6588 0.0
31.4937 -51.3237 0.0
-13.0601 -31.1823 0.0
-7.77752 -34.1944 0.0
-8.4408 -29.5272 0.0
-9.56088 -28.2958 0.0
-10.7895 -27.4987 0.0
-13.1068 -29.6723 0.0
-17.4732 27.6405 0.0
-16.4305 28.2618 0.0
-14.3102 34.2081 0.0
-19.1826 33.0692 0.0
-19.4552 32.7802 0.0
54.2358 -25.1352 0.0
54.2223 -24.4447 0.0
44.3188 -23.748 0.0
42.8796 -24.0415 0.0
41.1863 -25.3427 0.0
41.1713 -26.287 0.0
41.1736 -26.4906 0.0
54.0853 -25.4977 0.0
-57.8766 -5.14291 0.0
-57.1616 -5.5929 0.0
-55.779 -3.69682 0.0
-55.4427 -2.78371 0.0
-57.7566 2.73076 0.0
-60.1148 3.42849 0.0
-61.6721 3.07642 0.0
-3.66174 0.155156 0.0
-5.01908 1.56738 0.0
-9.01335 -0.991164 0.0
-4.03243 -5.26695 0.0
-1.85816 -6.38322 0.0
-1.53552 -6.2387 0.0
49.6183 23.622 0.0
50.806 26.0089 0.0
49.7612 29.3354 0.0
48.3855 30.0414 0.0
44.0037 25.9248 0.0
43.7499 25.1867 0.0
44.1808 24.2339 0.0
-9.31612 -37.0766 0.0
-8.96457 -37.4859 0.0
-4.8518 -36.4881 0.0
-7.6616 -34.6321 0.0
-12.9442 -31.62 0.0
-13.1232 -32.0904 0.0
-33.2458 10.3934 0.0
-33.1771 8.72707 0.0
-32.4893 7.87239 0.0
-27.4284 2.84899 0.0
-25.8441 3.85976 0.0
-25.0349 5.14686 0.0
-30.8284 -43.531 0.0
-34.3765 -44.0785 0.0
-33.6542 -50.1508 0.0
-30.2119 -47.7543 0.0
-29.8742 -47.2669 0.0
-20.9528 -2.10355 0.0
-17.02 -2.12917 0.0
-18.5296 2.23722 0.0
-18.8576 2.68754 0.0
-19.9713 3.36601 0.0
-23.9756 4.86228 0.0
-24.2126 4.6307 0.0
-25.0218 3.34359 0.0
-34.7893 0.353754 0.0
-35.9034 3.99502 0.0
-40.6428 5.9652 0.0
-42.2652 5.84855 0.0
-43.1318 5.04261 0.0
-42.5919 1.96061 0.0
-23.9625 -34.1436 0.0
-23.7576 -33.6154 0.0
-26.6689 -25.6871 0.0
-26.8599 -25.7042 0.0
-29.3383 -28.9301 0.0
-25.2438 -32.9711 0.0
19.4608 49.6986 0.0
20.9692 52.9413 0.0
14.9864 52.0812 0.0
14.0863 50.4967 0.0
17.0133 47.327 0.0
17.8203 47.4942 0.0
-18.5896 -26.7457 0.0
-18.0871 -26.959 0.0
-12.3367 -23.8567 0.0
-14.8764 -21.2683 0.0
-17.0323 -21.7 0.0
13.7974 10.6408 0.0
14.0855 8.97601 0.0
15.2034 7.44754 0.0
19.1939 16.2034 0.0
18.0879 17.5875 0.0
17.7821 17.6275 0.0
10.0239 -28.6841 0.0
8.25272 -30.4342 0.0
7.67909 -32.5446 0.0
8.59561 -36.1239 0.0
9.88669 -39.2182 0.0
13.3238 -36.1922 0.0
-24.3255 -44.0653 0.0
-29.2336 -40.0514 0.0
[...]
<CellData Scalars="cell variable 4" Vectors="cell vector">
<DataArray type="Float64" NumberOfComponents="3" Name="cell vector" format="ascii">
0 0 0
0 0 0
0 0 0
0 0 0
0 0 0
0 0 0
0 0 0
0 0 0
0 0 0
0 0 0
0 0 0
0 0 0
0 0 0
0 0 0
0 0 0
0 0 0
0 0 0
0 0 0
0 0 0
0 0 0
0 0 0
0 0 0
0 0 0
0 0 0
0 0 0
0 0 0
0 0 0
0 0 0
0 0 0
0 0 0
0 0 0
0 0 0
0 0 0
0 0 0
0 0 0
0 0 0
0 0 0
0 0 0
0 0 0
0 0 0
0 0 0
0 0 0
0 0 0
0 0 0
0 0 0
0 0 0
0 0 0
0 0 0
0 0 0
0 0 0
0 0 0
0 0 0
0 0 0
0 0 0
0 0 0
0 0 0
0 0 0
0 0 0
0 0 0
0 0 0
0 0 0
0 0 0
0 0 0
0 0 0
0 0 0
0 0 0
0 0 0
0 0 0
0 0 0
0 0 0
0 0 0
0 0 0
0 0 0
0 0 0
0 0 0
0 0 0
0 0 0
0 0 0
0 0 0
0 0 0
0 0 0
0 0 0
0 0 0
0 0 0
0 0 0
0 0 0
0 0 0
0 0 0
0 0 0
0 0 0
0 0 0
0 0 0
0 0 0
0 0 0
0 0 0
0 0 0
0 0 0
0 0 0
0 0 0
0 0 0
0 0 0
0 0 0
0 0 0
0 0 0
0 0 0
0 0 0
0 0 0
0 0 0
0 0 0
0 0 0
0 0 0
0 0 0
0 0 0
0 0 0
0 0 0
0 0 0
0 0 0
0 0 0
0 0 0
0 0 0
0 0 0
0 0 0
0 0 0
0 0 0
0 0 0
0 0 0
0 0 0
0 0 0
0 0 0
0 0 0
0 0 0
0 0 0
0 0 0
0 0 0
0 0 0
0 0 0
0 0 0
0 0 0
0 0 0
0 0 0
0 0 0
0 0 0
0 0 0
0 0 0
0 0 0
0 0 0
0 0 0
0 0 0
0 0 0
0 0 0
0 0 0
0 0 0
0 0 0
0 0 0
0 0 0
0 0 0
0 0 0
0 0 0
0 0 0
0 0 0
0 0 0
0 0 0
0 0 0
0 0 0
0 0 0
0 0 0
0 0 0
0 0 0
0 0 0
0 0 0
0 0 0
0 0 0
0 0 0
0 0 0
0 0 0
0 0 0
0 0 0
0 0 0
0 0 0
0 0 0
0 0 0
0 0 0
0 0 0
0 0 0
0 0 0
0 0 0
0 0 0
0 0 0
0 0 0
0 0 0
0 0 0
0 0 0
0 0 0
0 0 0
0 0 0
0 0 0
0 0 0
0 0 0
0 0 0
0 0 0
0 0 0
0 0 0
0 0 0
0 0 0
0 0 0
0 0 0
0 0 0
0 0 0
0 0 0
0 0 0
0 0 0
0 0 0
0 0 0
0 0 0
0 0 0
0 0 0
0 0 0
0 0 0
0 0 0
0 0 0
0 0 0
0 0 0
0 0 0
0 0 0
0 0 0
0 0 0
0 0 0
0 0 0
0 0 0
0 0 0
0 0 0
0 0 0
0 0 0
0 0 0
0 0 0
0 0 0
0 0 0
0 0 0
0 0 0
0 0 0
0 0 0
0 0 0
0 0 0
0 0 0
0 0 0
0 0 0
0 0 0
0 0 0
0 0 0
0 0 0
0 0 0
0 0 0
0 0 0
0 0 0
0 0 0
0 0 0
0 0 0
0 0 0
0 0 0
0 0 0
0 0 0
0 0 0
0 0 0
0 0 0
0 0 0
0 0 0
0 0 0
0 0 0
0 0 0
0 0 0
0 0 0
0 0 0
0 0 0
0 0 0
0 0 0
0 0 0
0 0 0
0 0 0
0 0 0
0 0 0
0 0 0
0 0 0
0 0 0
0 0 0
0 0 0
0 0 0
0 0 0
0 0 0
0 0 0
0 0 0
0 0 0
0 0 0
0 0 0
0 0 0
0 0 0
0 0 0
0 0 0
0 0 0
0 0 0
0 0 0
0 0 0
0 0 0
0 0 0
0 0 0
0 0 0
0 0 0
0 0 0
0 0 0
0 0 0
0 0 0
0 0 0
0 0 0
0 0 0
0 0 0
0 0 0
0 0 0
0 0 0
0 0 0
0 0 0
0 0 0
0 0 0
0 0 0
0 0 0
0 0 0
0 0 0
0 0 0
0 0 0
0 0 0
0 0 0
0 0 0
0 0 0
0 0 0
0 0 0
0 0 0
0 0 0
0 0 0
0 0 0
0 0 0
0 0 0
0 0 0
0 0 0
0 0 0
0 0 0
0 0 0
0 0 0
0 0 0
0 0 0
0 0 0
0 0 0
0 0 0
0 0 0
0 0 0
0 0 0
0 0 0
0 0 0
0 0 0
0 0 0
0 0 0
0 0 0
0 0 0
0 0 0
0 0 0
0 0 0
0 0 0
0 0 0
0 0 0
0 0 0
0 0 0
0 0 0
0 0 0
0 0 0
0 0 0
0 0 0
0 0 0
0 0 0
0 0 0
0 0 0
0 0 0
0 0 0
0 0 0
0 0 0
0 0 0
0 0 0
0 0 0
0 0 0
0 0 0
0 0 0
0 0 0
0 0 0
0 0 0
0 0 0
0 0 0
0 0 0
0 0 0
0 0 0
0 0 0
0 0 0
0 0 0
0 0 0
0 0 0
0 0 0
0 0 0
0 0 0
0 0 0
0 0 0
0 0 0
0 0 0
0 0 0
0 0 0
0 0 0
0 0 0
0 0 0
</DataArray>
<DataArray type="Float64" Name="cell vector length" format="ascii">
0 0 0 0 0 0 0 0 0 0 0 0 0 0 0 0 0 0 0 0 0 0 0 0 0 0 0 0 0 0 0 0 0 0 0 0 0 0 0 0 0 0 0 0 0 0 0 0 0 0 0 0 0 0 0 0 0 0 0 0 0 0 0 0 0 0 0 0 0 0 0 0 0 0 0 0 0 0 0 0 0 0 0 0 0 0 0 0 0 0 0 0 0 0 0 0 0 0 0 0 0 0 0 0 0 0 0 0 0 0 0 0 0 0 0 0 0 0 0 0 0 0 0 0 0 0 0 0 0 0 0 0 0 0 0 0 0 0 0 0 0 0 0 0 0 0 0 0 0 0 0 0 0 0 0 0 0 0 0 0 0 0 0 0 0 0 0 0 0 0 0 0 0 0 0 0 0 0 0 0 0 0 0 0 0 0 0 0 0 0 0 0 0 0 0 0 0 0 0 0 0 0 0 0 0 0 0 0 0 0 0 0 0 0 0 0 0 0 0 0 0 0 0 0 0 0 0 0 0 0 0 0 0 0 0 0 0 0 0 0 0 0 0 0 0 0 0 0 0 0 0 0 0 0 0 0 0 0 0 0 0 0 0 0 0 0 0 0 0 0 0 0 0 0 0 0 0 0 0 0 0 0 0 0 0 0 0 0 0 0 0 0 0 0 0 0 0 0 0 0 0 0 0 0 0 0 0 0 0 0 0 0 0 0 0 0 0 0 0 0 0 0 0 0 0 0 0 0 0 0 0 0 0 0 0 0 0 0 0 0 0 0 0 0 0 0 0 0 0 0 0 0 0 0 0 0 0 0 0 0 0 0 0 0 0 0 0 0 0 0 0 0 0 0 0 0 0 0 0 0 0 0 0 0 0 0 0 0 0 0 0 0 0 0 0 0 0 0 0 0 0 0 0 0 0 0 0 0 0 0 0 0 
</DataArray>
<DataArray type="Float64" Name="cell variable 4" format="ascii">
1.11547 1.06245 0.789941 1.07467 0.631062 0.94865 1.11547 0.94865 0.763876 0.8063 1.14226 1.04461 0.8063 1.04461 0.912892 0.919422 1.07467 1.10185 0.789941 0.94865 0.919422 0.99432 0.99432 1.00681 1.07467 0.626025 1.00681 1.14226 0.99432 0.912892 0.980966 0.99432 0.980966 1.04461 1.11547 0.919422 0.919422 0.657465 0.912892 0.763876 0.912892 0.848855 0.848855 0.919422 0.789941 1.10185 1.11547 0.848855 0.980966 0.657465 1.11547 1.11547 0.763876 1.04461 1.11547 1.07467 1.06245 1.06245 1.11547 0.912892 1.10185 0.708918 1.04461 1.07467 0.912892 0.542818 1.12037 0.848855 1.04461 1.00681 0.631062 1.12037 1.00681 0.90618 0.626025 1.04461 1.14226 0.94865 0.90618 1.11547 0.573608 0.919422 1.11547 0.848855 1.11547 0.912892 1.04461 1.10185 1.14226 1.07467 0.94865 0.980966 0.99432 0.657465 0.980966 0.980966 0.763876 0.919422 1.12037 1.11547 1.04461 1.04461 0.919422 0.94865 0.919422 0.919422 0.99432 1.12037 0.631062 0.912892 0.763876 1.00681 1.10185 0.673042 0.912892 1.14226 0.789941 0.657465 1.11547 0.789941 0.626025 1.07467 1.00681 0.94865 0.673042 0.657465 0.789941 1.06245 0.99432 1.04461 0.66381 1.11547 1.00681 1.07467 1.06245 1.06245 0.631062 0.789941 1.04461 0.919422 0.790107 1.00681 1.12037 0.763876 0.90618 0.980966 1.07467 0.99432 0.980966 0.848855 1.04461 0.980966 0.919422 0.919422 1.00681 0.8063 0.912892 1.12037 0.631062 1.06245 1.07467 0.94865 1.04461 1.06245 1.00681 1.14226 0.657465 1.11547 1.11547 1.10185 1.10185 0.919422 1.12037 0.919422 0.848855 0.94865 1.00681 1.00681 0.66381 0.919422 1.12037 1.00681 1.00681 0.657465 1.00681 0.980966 0.763876 1.11547 1.04461 1.06245 1.07467 0.912892 1.07467 0.90618 0.980966 0.789941 0.94865 0.763876 0.8063 0.919422 0.790107 0.90618 0.919422 0.912892 1.12037 1.04461 0.919422 0.90618 0.763876 0.980966 1.07467 1.10185 0.912892 1.06245 0.980966 1.10185 0.980966 0.673042 1.07467 1.07467 1.04461 1.04461 0.790107 1.10185 1.04461 0.8063 1.11547 1.10185 0.912892 0.8063 1.07467 0.90618 0.848855 1.10185 1.04461 0.919422 1.10185 0.912892 0.980966 0.631062 0.99432 0.94865 0.919422 1.11547 0.919422 1.00681 0.90618 0.763876 0.919422 1.07467 1.10185 0.848855 0.626025 1.14226 0.912892 0.763876 1.10185 0.99432 1.06245 1.14226 1.11547 0.99432 1.06245 0.919422 1.06245 1.14226 1.14226 0.912892 0.912892 0.919422 1.11547 0.789941 0.919422 1.04461 1.14226 1.11547 0.94865 0.848855 0.94865 1.11547 0.626025 1.06245 0.8063 0.912892 0.789941 0.912892 0.631062 1.14226 1.10185 1.00681 0.912892 1.14226 0.94865 0.90618 0.790107 1.07467 1.00681 1.12037 1.06245 0.848855 0.912892 1.10185 1.12037 1.06245 0.912892 0.848855 0.657465 0.673042 0.94865 0.90618 0.90618 0.919422 1.12037 1.07467 0.912892 0.848855 1.10185 1.11547 0.980966 0.8063 0.631062 0.789941 0.789941 0.980966 0.763876 0.848855 0.789941 1.14226 1.07467 0.8063 1.04461 1.14226 0.912892 1.11547 0.94865 0.980966 0.90618 0.980966 1.04461 0.657465 0.90618 0.919422 1.00681 0.94865 0.99432 1.06245 0.8063 0.980966 0.99432 1.12037 0.90618 1.12037 0.919422 0.657465 1.00681 0.789941 1.00681 0.8063 0.8063 1.14226 1.12037 0.708918 0.980966 0.919422 0.919422 1.14226 0.848855 1.06245 0.789941 1.11547 0.980966 1.12037 1.00681 1.10185 0.90618 1.04461 1.12037 0.919422 1.10185 0.626025 0.66381 1.11547 1.06245 1.00681 0.631062 0.919422 1.04461 0.90618 1.14226 0.763876 1.07467 1.04461 0.90618 0.657465 1.04461 1.11547 0.763876 1.11547 1.06245 0.980966 0.99432 1.00681 0.90618 0.980966 1.00681 0.789941 1.00681 0.789941 0.94865 0.99432 1.10185 1.07467 
</DataArray>
<DataArray type="Float64" Name="cell variable 5" format="ascii">
0.00797274 0.00878122 0.0157727 0.00858434 0.0244954 0.0109898 0.00797274 0.0109898 0.016849 0.0151488 0.00760594 0.00908091 0.0151488 0.00908091 0.0118572 0.0116913 0.00858434 0.00816951 0.0157727 0.0109898 0.0116913 0.0100133 0.0100133 0.00976872 0.00858434 0.0248813 0.00976872 0.00760594 0.0100133 0.0118572 0.0102849 0.0100133 0.0102849 0.00908091 0.00797274 0.0116913 0.0116913 0.0226112 0.0118572 0.016849 0.0118572 0.0136882 0.0136882 0.0116913 0.0157727 0.00816951 0.00797274 0.0136882 0.0102849 0.0226112 0.00797274 0.00797274 0.016849 0.00908091 0.00797274 0.00858434 0.00878122 0.00878122 0.00797274 0.0118572 0.00816951 0.0195097 0.00908091 0.00858434 0.0118572 0.0328244 0.00790366 0.0136882 0.00908091 0.00976872 0.0244954 0.00790366 0.00976872 0.0120314 0.0248813 0.00908091 0.00760594 0.0109898 0.0120314 0.00797274 0.0294962 0.0116913 0.00797274 0.0136882 0.00797274 0.0118572 0.00908091 0.00816951 0.00760594 0.00858434 0.0109898 0.0102849 0.0100133 0.0226112 0.0102849 0.0102849 0.016849 0.0116913 0.00790366 0.00797274 0.00908091 0.00908091 0.0116913 0.0109898 0.0116913 0.0116913 0.0100133 0.00790366 0.0244954 0.0118572 0.016849 0.00976872 0.00816951 0.021599 0.0118572 0.00760594 0.0157727 0.0226112 0.00797274 0.0157727 0.0248813 0.00858434 0.00976872 0.0109898 0.021599 0.0226112 0.0157727 0.00878122 0.0100133 0.00908091 0.0221905 0.00797274 0.00976872 0.00858434 0.00878122 0.00878122 0.0244954 0.0157727 0.00908091 0.0116913 0.0157662 0.00976872 0.00790366 0.016849 0.0120314 0.0102849 0.00858434 0.0100133 0.0102849 0.0136882 0.00908091 0.0102849 0.0116913 0.0116913 0.00976872 0.0151488 0.0118572 0.00790366 0.0244954 0.00878122 0.00858434 0.0109898 0.00908091 0.00878122 0.00976872 0.00760594 0.0226112 0.00797274 0.00797274 0.00816951 0.00816951 0.0116913 0.00790366 0.0116913 0.0136882 0.0109898 0.00976872 0.00976872 0.0221905 0.0116913 0.00790366 0.00976872 0.00976872 0.0226112 0.00976872 0.0102849 0.016849 0.00797274 0.00908091 0.00878122 0.00858434 0.0118572 0.00858434 0.0120314 0.0102849 0.0157727 0.0109898 0.016849 0.0151488 0.0116913 0.0157662 0.0120314 0.0116913 0.0118572 0.00790366 0.00908091 0.0116913 0.0120314 0.016849 0.0102849 0.00858434 0.00816951 0.0118572 0.00878122 0.0102849 0.00816951 0.0102849 0.021599 0.00858434 0.00858434 0.00908091 0.00908091 0.0157662 0.00816951 0.00908091 0.0151488 0.00797274 0.00816951 0.0118572 0.0151488 0.00858434 0.0120314 0.0136882 0.00816951 0.00908091 0.0116913 0.00816951 0.0118572 0.0102849 0.0244954 0.0100133 0.0109898 0.0116913 0.00797274 0.0116913 0.00976872 0.0120314 0.016849 0.0116913 0.00858434 0.00816951 0.0136882 0.0248813 0.00760594 0.0118572 0.016849 0.00816951 0.0100133 0.00878122 0.00760594 0.00797274 0.0100133 0.00878122 0.0116913 0.00878122 0.00760594 0.00760594 0.0118572 0.0118572 0.0116913 0.00797274 0.0157727 0.0116913 0.00908091 0.00760594 0.00797274 0.0109898 0.0136882 0.0109898 0.00797274 0.0248813 0.00878122 0.0151488 0.0118572 0.0157727 0.0118572 0.0244954 0.00760594 0.00816951 0.00976872 0.0118572 0.00760594 0.0109898 0.0120314 0.0157662 0.00858434 0.00976872 0.00790366 0.00878122 0.0136882 0.0118572 0.00816951 0.00790366 0.00878122 0.0118572 0.0136882 0.0226112 0.021599 0.0109898 0.0120314 0.0120314 0.0116913 0.00790366 0.00858434 0.0118572 0.0136882 0.00816951 0.00797274 0.0102849 0.0151488 0.0244954 0.0157727 0.0157727 0.0102849 0.016849 0.0136882 0.0157727 0.00760594 0.00858434 0.0151488 0.00908091 0.00760594 0.0118572 0.00797274 0.0109898 0.0102849 0.0120314 0.0102849 0.00908091 0.0226112 0.0120314 0.0116913 0.00976872 0.0109898 0.0100133 0.00878122 0.0151488 0.0102849 0.0100133 0.00790366 0.0120314 0.00790366 0.0116913 0.0226112 0.00976872 0.0157727 0.00976872 0.0151488 0.0151488 0.00760594 0.00790366 0.0195097 0.0102849 0.0116913 0.0116913 0.00760594 0.0136882 0.00878122 0.0157727 0.00797274 0.0102849 0.00790366 0.00976872 0.00816951 0.0120314 0.00908091 0.00790366 0.0116913 0.00816951 0.0248813 0.0221905 0.00797274 0.00878122 0.00976872 0.0244954 0.0116913 0.00908091 0.0120314 0.00760594 0.016849 0.00858434 0.00908091 0.0120314 0.0226112 0.00908091 0.00797274 0.016849 0.00797274 0.00878122 0.0102849 0.0100133 0.00976872 0.0120314 0.0102849 0.00976872 0.0157727 0.00976872 0.0157727 0.0109898 0.0100133 0.00816951 0.00858434 
</DataArray>
<DataArray type="Float64" Name="cell variable 6" format="ascii">
4.32387e-06 5.74138e-06 3.156e-05 5.3719e-06 0.000110922 1.10661e-05 4.32387e-06 1.10661e-05 3.81646e-05 2.80904e-05 3.76475e-06 6.33494e-06 2.80904e-05 6.33494e-06 1.38076e-05 1.32528e-05 5.3719e-06 4.64493e-06 3.156e-05 1.10661e-05 1.32528e-05 8.43313e-06 8.43313e-06 7.8448e-06 5.3719e-06 0.000115922 7.8448e-06 3.76475e-06 8.43313e-06 1.38076e-05 9.11938e-06 8.43313e-06 9.11938e-06 6.33494e-06 4.32387e-06 1.32528e-05 1.32528e-05 8.84138e-05 1.38076e-05 3.81646e-05 1.38076e-05 2.09522e-05 2.09522e-05 1.32528e-05 3.156e-05 4.64493e-06 4.32387e-06 2.09522e-05 9.11938e-06 8.84138e-05 4.32387e-06 4.32387e-06 3.81646e-05 6.33494e-06 4.32387e-06 5.3719e-06 5.74138e-06 5.74138e-06 4.32387e-06 1.38076e-05 4.64493e-06 5.81379e-05 6.33494e-06 5.3719e-06 1.38076e-05 0.000251962 4.21468e-06 2.09522e-05 6.33494e-06 7.8448e-06 0.000110922 4.21468e-06 7.8448e-06 1.4406e-05 0.000115922 6.33494e-06 3.76475e-06 1.10661e-05 1.4406e-05 4.32387e-06 0.000187165 1.32528e-05 4.32387e-06 2.09522e-05 4.32387e-06 1.38076e-05 6.33494e-06 4.64493e-06 3.76475e-06 5.3719e-06 1.10661e-05 9.11938e-06 8.43313e-06 8.84138e-05 9.11938e-06 9.11938e-06 3.81646e-05 1.32528e-05 4.21468e-06 4.32387e-06 6.33494e-06 6.33494e-06 1.32528e-05 1.10661e-05 1.32528e-05 1.32528e-05 8.43313e-06 4.21468e-06 0.000110922 1.38076e-05 3.81646e-05 7.8448e-06 4.64493e-06 7.76673e-05 1.38076e-05 3.76475e-06 3.156e-05 8.84138e-05 4.32387e-06 3.156e-05 0.000115922 5.3719e-06 7.8448e-06 1.10661e-05 7.76673e-05 8.84138e-05 3.156e-05 5.74138e-06 8.43313e-06 6.33494e-06 8.3838e-05 4.32387e-06 7.8448e-06 5.3719e-06 5.74138e-06 5.74138e-06 0.000110922 3.156e-05 6.33494e-06 1.32528e-05 3.15261e-05 7.8448e-06 4.21468e-06 3.81646e-05 1.4406e-05 9.11938e-06 5.3719e-06 8.43313e-06 9.11938e-06 2.09522e-05 6.33494e-06 9.11938e-06 1.32528e-05 1.32528e-05 7.8448e-06 2.80904e-05 1.38076e-05 4.21468e-06 0.000110922 5.74138e-06 5.3719e-06 1.10661e-05 6.33494e-06 5.74138e-06 7.8448e-06 3.76475e-06 8.84138e-05 4.32387e-06 4.32387e-06 4.64493e-06 4.64493e-06 1.32528e-05 4.21468e-06 1.32528e-05 2.09522e-05 1.10661e-05 7.8448e-06 7.8448e-06 8.3838e-05 1.32528e-05 4.21468e-06 7.8448e-06 7.8448e-06 8.84138e-05 7.8448e-06 9.11938e-06 3.81646e-05 4.32387e-06 6.33494e-06 5.74138e-06 5.3719e-06 1.38076e-05 5.3719e-06 1.4406e-05 9.11938e-06 3.156e-05 1.10661e-05 3.81646e-05 2.80904e-05 1.32528e-05 3.15261e-05 1.4406e-05 1.32528e-05 1.38076e-05 4.21468e-06 6.33494e-06 1.32528e-05 1.4406e-05 3.81646e-05 9.11938e-06 5.3719e-06 4.64493e-06 1.38076e-05 5.74138e-06 9.11938e-06 4.64493e-06 9.11938e-06 7.76673e-05 5.3719e-06 5.3719e-06 6.33494e-06 6.33494e-06 3.15261e-05 4.64493e-06 6.33494e-06 2.80904e-05 4.32387e-06 4.64493e-06 1.38076e-05 2.80904e-05 5.3719e-06 1.4406e-05 2.09522e-05 4.64493e-06 6.33494e-06 1.32528e-05 4.64493e-06 1.38076e-05 9.11938e-06 0.000110922 8.43313e-06 1.10661e-05 1.32528e-05 4.32387e-06 1.32528e-05 7.8448e-06 1.4406e-05 3.81646e-05 1.32528e-05 5.3719e-06 4.64493e-06 2.09522e-05 0.000115922 3.76475e-06 1.38076e-05 3.81646e-05 4.64493e-06 8.43313e-06 5.74138e-06 3.76475e-06 4.32387e-06 8.43313e-06 5.74138e-06 1.32528e-05 5.74138e-06 3.76475e-06 3.76475e-06 1.38076e-05 1.38076e-05 1.32528e-05 4.32387e-06 3.156e-05 1.32528e-05 6.33494e-06 3.76475e-06 4.32387e-06 1.10661e-05 2.09522e-05 1.10661e-05 4.32387e-06 0.000115922 5.74138e-06 2.80904e-05 1.38076e-05 3.156e-05 1.38076e-05 0.000110922 3.76475e-06 4.64493e-06 7.8448e-06 1.38076e-05 3.76475e-06 1.10661e-05 1.4406e-05 3.15261e-05 5.3719e-06 7.8448e-06 4.21468e-06 5.74138e-06 2.09522e-05 1.38076e-05 4.64493e-06 4.21468e-06 5.74138e-06 1.38076e-05 2.09522e-05 8.84138e-05 7.76673e-05 1.10661e-05 1.4406e-05 1.4406e-05 1.32528e-05 4.21468e-06 5.3719e-06 1.38076e-05 2.09522e-05 4.64493e-06 4.32387e-06 9.11938e-06 2.80904e-05 0.000110922 3.156e-05 3.156e-05 9.11938e-06 3.81646e-05 2.09522e-05 3.156e-05 3.76475e-06 5.3719e-06 2.80904e-05 6.33494e-06 3.76475e-06 1.38076e-05 4.32387e-06 1.10661e-05 9.11938e-06 1.4406e-05 9.11938e-06 6.33494e-06 8.84138e-05 1.4406e-05 1.32528e-05 7.8448e-06 1.10661e-05 8.43313e-06 5.74138e-06 2.80904e-05 9.11938e-06 8.43313e-06 4.21468e-06 1.4406e-05 4.21468e-06 1.32528e-05 8.84138e-05 7.8448e-06 3.156e-05 7.8448e-06 2.80904e-05 2.80904e-05 3.76475e-06 4.21468e-06 5.81379e-05 9.11938e-06 1.32528e-05 1.32528e-05 3.76475e-06 2.09522e-05 5.74138e-06 3.156e-05 4.32387e-06 9.11938e-06 4.21468e-06 7.8448e-06 4.64493e-06 1.4406e-05 6.33494e-06 4.21468e-06 1.32528e-05 4.64493e-06 0.000115922 8.3838e-05 4.32387e-06 5.74138e-06 7.8448e-06 0.000110922 1.32528e-05 6.33494e-06 1.4406e-05 3.76475e-06 3.81646e-05 5.3719e-06 6.33494e-06 1.4406e-05 8.84138e-05 6.33494e-06 4.32387e-06 3.81646e-05 4.32387e-06 5.74138e-06 9.11938e-06 8.43313e-06 7.8448e-06 1.4406e-05 9.11938e-06 7.8448e-06 3.156e-05 7.8448e-06 3.156e-05 1.10661e-05 8.43313e-06 4.64493e-06 5.3719e-06 
</DataArray>
<DataArray type="Float64" Name="cell variable 7" format="ascii">