<VTKFile type="UnstructuredGrid" version="0.1">
<UnstructuredGrid>
<Piece  NumberOfPoints="    2553" NumberOfCells="     426">
<Points>
<DataArray type="Float64" NumberOfComponents="3" format="ascii">
-1.8643 -13.1082 0.0
-1.09037 -14.9666 0.0
1.42167 -14.36 0.0
0.955635 -12.1635 0.0
-0.393351 -7.76335 0.0
-1.16071 -7.67384 0.0
-1.53919 -7.84424 0.0
-2.80034 -10.5167 0.0
27.2905 24.6619 0.0
27.4072 24.1473 0.0
29.8206 20.2434 0.0
30.1872 20.1921 0.0
30.7374 20.2325 0.0
36.8474 22.9705 0.0
37.328 24.7463 0.0
34.5687 24.8296 0.0
-4.4265 -54.2077 0.0
-3.96992 -52.7408 0.0
-12.1128 -53.7382 0.0
-14.3709 -56.352 0.0
-13.9585 -57.3587 0.0
-6.64436 -55.0129 0.0
-8.36563 36.7499 0.0
-9.32257 35.0441 0.0
-1.33115 35.8501 0.0
-1.56671 36.5404 0.0
-5.02196 38.6955 0.0
-5.37129 38.5274 0.0
-33.6758 -46.6776 0.0
-33.2171 -44.7353 0.0
-39.2877 -42.3959 0.0
-39.4436 -46.6485 0.0
-37.3301 -47.2074 0.0
26.029 -42.4881 0.0
19.9214 -44.69 0.0
18.5838 -49.1466 0.0
20.754 -48.7406 0.0
21.593 -48.4463 0.0
27.2761 -43.0865 0.0
10.8955 -2.08336 0.0
10.019 -4.82951 0.0
11.0839 -6.1521 0.0
18.7839 -3.25005 0.0
18.8976 -2.94366 0.0
18.8645 -1.95105 0.0
32.741 -36.664 0.0
30.6585 -34.9018 0.0
26.3072 -41.0607 0.0
26.7536 -41.8211 0.0
28.0007 -42.4195 0.0
29.1328 -42.4347 0.0
31.2429 -39.764 0.0
16.682 -20.8517 0.0
16.8368 -21.4887 0.0
22.5562 -23.401 0.0
21.3586 -18.4916 0.0
18.9359 -18.8336 0.0
16.8122 -20.1282 0.0
-54.2773 7.23127 0.0
-55.135 8.99216 0.0
-61.1094 7.03038 0.0
-61.1443 4.76509 0.0
-60.5648 4.73413 0.0
-55.1141 5.08685 0.0
-54.4448 6.68103 0.0
7.9984 29.833 0.0
10.7234 29.47 0.0
11.9021 29.3378 0.0
12.4607 32.9597 0.0
9.48727 33.2421 0.0
6.34652 33.1143 0.0
6.19948 31.3283 0.0
6.57219 30.7949 0.0
0.271511 -29.8569 0.0
-0.199131 -31.1297 0.0
5.80133 -35.1732 0.0
7.40636 -34.7843 0.0
8.05635 -32.4625 0.0
4.89308 -30.4849 0.0
-56.2572 16.1581 0.0
-57.529 12.4631 0.0
-55.2318 10.9211 0.0
-51.4341 17.9524 0.0
-20.6432 -29.0377 0.0
-20.1921 -26.6178 0.0
-25.9269 -24.5755 0.0
-26.5651 -27.1147 0.0
-23.8905 -29.1067 0.0
-21.1444 -29.0983 0.0
39.5043 -13.4061 0.0
37.6374 -13.2986 0.0
37.4773 -13.6311 0.0
38.7589 -19.4978 0.0
39.4349 -20.1663 0.0
42.5721 -18.9592 0.0
43.7169 -17.8765 0.0
-47.7563 -9.837 0.0
-46.1938 -11.1242 0.0
-40.5025 -10.5137 0.0
-42.6841 -9.24684 0.0
-48.9236 -6.39524 0.0
-48.9411 -6.4467 0.0
-12.0099 31.4281 0.0
-15.7179 30.2857 0.0
-16.6943 29.9034 0.0
-16.7863 24.6078 0.0
-16.7495 23.5611 0.0
-12.0789 26.8928 0.0
-11.7275 27.5047 0.0
33.7804 6.52409 0.0
38.9605 6.61076 0.0
42.7649 8.10408 0.0
42.5564 8.60269 0.0
37.2338 10.2043 0.0
36.7372 10.9664 0.0
37.4459 10.5435 0.0
42.7685 8.94186 0.0
42.1583 13.2194 0.0
40.886 14.3269 0.0
30.3841 -34.7271 0.0
29.8115 -33.894 0.0
24.7014 -36.5349 0.0
23.9537 -38.8653 0.0
26.0328 -40.8861 0.0
-42.2368 -9.02373 0.0
-40.0552 -10.2906 0.0
-39.3748 -10.6538 0.0
-38.6532 -6.24857 0.0
-39.3071 -5.11581 0.0
-43.8332 -4.04069 0.0
-45.6051 33.0807 0.0
-42.2714 33.0785 0.0
-40.5399 33.8039 0.0
-39.8236 35.3528 0.0
-39.2776 39.6426 0.0
-40.1061 40.4839 0.0
-40.7279 40.0915 0.0
-39.0613 43.1036 0.0
-39.4653 41.4593 0.0
-38.6369 40.618 0.0
-34.3256 44.0419 0.0
-31.1772 51.0177 0.0
-31.4919 51.4317 0.0
-32.8891 51.064 0.0
-24.9431 11.7084 0.0
-23.6405 12.6691 0.0
-24.5093 18.9487 0.0
-28.5677 18.0304 0.0
-10.8151 32.1605 0.0
-11.2715 31.7328 0.0
-10.9891 27.8094 0.0
-3.36687 30.4386 0.0
-2.8141 30.8379 0.0
-1.53668 33.4388 0.0
20.0232 -4.38013 0.0
20.0309 -4.53427 0.0
23.0132 -7.8657 0.0
30.0069 -8.04193 0.0
31.1515 -7.40024 0.0
-33.5137 -0.0558907 0.0
-31.3422 -0.543526 0.0
-29.8377 2.74906 0.0
-35.209 7.92986 0.0
-0.385485 18.8603 0.0
-2.31738 13.4106 0.0
-2.23703 11.9621 0.0
0.562744 13.4235 0.0
2.93531 15.0882 0.0
-24.7881 43.301 0.0
-25.0913 42.7516 0.0
-20.7175 43.0325 0.0
-17.9173 45.5902 0.0
-18.0099 46.405 0.0
-22.2139 47.1212 0.0
55.5663 4.40368 0.0
55.356 4.6309 0.0
49.9428 0.462663 0.0
49.9994 -4.53965 0.0
53.3774 -1.39441 0.0
4.14622 35.3021 0.0
4.60907 35.2491 0.0
6.97726 41.4867 0.0
3.45644 45.4849 0.0
2.56657 42.8481 0.0
-34.0116 32.8259 0.0
-32.3141 33.2329 0.0
-31.1055 35.7858 0.0
-31.6628 38.7592 0.0
-32.1341 39.0258 0.0
-35.7918 36.9604 0.0
21.8135 41.7413 0.0
22.1097 43.8878 0.0
17.7829 49.0748 0.0
16.8335 47.8978 0.0
16.6981 47.5879 0.0
17.4838 43.6898 0.0
0.247855 -37.8887 0.0
-0.465899 -37.577 0.0
-1.81452 -38.148 0.0
-3.19902 -40.5528 0.0
-2.91385 -43.7089 0.0
-0.100936 -43.9882 0.0
22.6498 -28.1378 0.0
29.0868 -25.2191 0.0
29.4968 -22.5595 0.0
23.6843 -24.1778 0.0
23.3694 -24.3581 0.0
21.3193 -26.8188 0.0
22.4661 -28.0791 0.0
-54.1911 -8.51453 0.0
-52.2645 -7.91024 0.0
-49.857 -6.05362 0.0
-49.8395 -6.00215 0.0
-49.8669 -5.49551 0.0
-52.2769 -4.21291 0.0
-55.7556 -2.37246 0.0
-58.961 -3.47009 0.0
-59.2535 -4.48597 0.0
-51.8387 -22.2148 0.0
-51.966 -22.4417 0.0
-51.2805 -27.3777 0.0
-48.9624 -33.2025 0.0
-47.1761 -32.6477 0.0
-46.6483 -28.103 0.0
38.4819 -40.5374 0.0
35.9352 -43.3809 0.0
41.7444 -47.0926 0.0
42.9657 -46.4891 0.0
49.1615 1.45425 0.0
48.9205 5.94696 0.0
48.6375 5.90078 0.0
46.1052 5.35208 0.0
45.3421 -2.47472 0.0
-15.1749 49.6802 0.0
-17.1736 46.617 0.0
-17.081 45.8023 0.0
-16.7379 45.3897 0.0
-11.1424 44.6746 0.0
-9.57901 45.447 0.0
-8.77173 48.1606 0.0
51.4009 -9.81079 0.0
50.3646 -9.53403 0.0
49.5908 -17.0215 0.0
51.0509 -17.505 0.0
52.3145 -17.0063 0.0
52.8221 -11.1298 0.0
52.7911 -10.4622 0.0
58.9141 15.7476 0.0
58.1558 18.3889 0.0
54.1331 20.017 0.0
53.5642 18.4718 0.0
53.9402 15.9823 0.0
55.3135 12.6783 0.0
-6.83705 -55.3685 0.0
-14.1511 -57.7142 0.0
-14.1855 -60.243 0.0
-13.0507 -60.9904 0.0
-12.0813 -60.9275 0.0
-45.3141 -27.4135 0.0
-46.1449 -28.3806 0.0
-46.6728 -32.9253 0.0
-43.5687 -34.0814 0.0
-40.6318 -31.0085 0.0
5.98848 -61.518 0.0
8.22316 -59.161 0.0
8.42805 -58.7499 0.0
4.80907 -49.6129 0.0
3.7843 -49.9421 0.0
42.6193 3.01838 0.0
42.2988 1.47212 0.0
43.9785 -4.91773 0.0
44.611 -4.64621 0.0
45.0313 -2.60877 0.0
45.7944 5.21803 0.0
44.2196 5.85188 0.0
24.8433 -16.6129 0.0
21.8468 -18.3586 0.0
23.0444 -23.268 0.0
23.2897 -23.7737 0.0
23.6046 -23.5934 0.0
28.4139 -17.8765 0.0
26.0857 -16.5232 0.0
55.5483 12.2172 0.0
55.3593 9.70995 0.0
61.7394 10.6214 0.0
59.5241 14.8402 0.0
59.1489 15.2865 0.0
16.2878 47.4633 0.0
14.8052 47.0989 0.0
12.7391 41.159 0.0
13.9474 40.8223 0.0
15.643 41.4049 0.0
17.0735 43.5652 0.0
31.6335 -40.0323 0.0
29.5234 -42.703 0.0
30.5802 -43.6651 0.0
30.8332 -43.826 0.0
35.3508 -43.1545 0.0
37.8976 -40.3109 0.0
38.1048 -39.9265 0.0
1.41959 -12.7464 0.0
1.88563 -14.9429 0.0
3.84778 -21.8198 0.0
5.53263 -20.2252 0.0
5.99425 -16.3981 0.0
10.8473 -8.08107 0.0
10.1876 -11.473 0.0
12.49 -12.837 0.0
13.4143 -12.9427 0.0
16.1107 -8.62579 0.0
-18.3962 -2.42755 0.0
-19.765 1.91903 0.0
-24.7376 0.672656 0.0
-22.6409 -2.22037 0.0
-19.204 -29.4277 0.0
-14.4843 -31.832 0.0
-11.8932 -29.434 0.0
-11.8386 -27.1802 0.0
-13.2482 -26.2036 0.0
8.69139 -19.6675 0.0
11.7384 -19.5554 0.0
15.1281 -19.004 0.0
14.3769 -15.889 0.0
14.0213 -14.4072 0.0
13.3703 -13.6333 0.0
12.446 -13.5277 0.0
-1.9009 30.9486 0.0
-1.47313 30.2889 0.0
3.67727 29.6308 0.0
5.46297 31.3866 0.0
5.61002 33.1726 0.0
5.4996 33.3943 0.0
4.36101 34.3909 0.0
3.89816 34.4439 0.0
-0.148555 34.0998 0.0
-0.62348 33.5496 0.0
-13.5357 -9.24088 0.0
-14.1676 -4.02952 0.0
-14.4785 -3.56845 0.0
-17.1903 -3.57145 0.0
-17.8953 -6.61345 0.0
-17.8303 -7.10962 0.0
33.7022 42.4915 0.0
38.2236 40.5679 0.0
39.2608 40.231 0.0
41.2915 43.1887 0.0
41.132 44.4413 0.0
38.0616 45.1421 0.0
14.8809 -15.8804 0.0
15.6321 -18.9955 0.0
16.5705 -19.7569 0.0
18.6942 -18.4622 0.0
20.3796 -14.8183 0.0
49.4897 0.125842 0.0
49.2089 0.889827 0.0
45.3896 -3.03914 0.0
44.9693 -5.07658 0.0
48.8257 -6.44753 0.0
49.5463 -4.87647 0.0
30.7383 19.4748 0.0
30.1881 19.4344 0.0
31.0005 11.8443 0.0
32.7561 12.4605 0.0
34.9009 15.3081 0.0
-0.868936 -15.6879 0.0
1.69114 -22.5142 0.0
3.47733 -22.259 0.0
3.60527 -21.9582 0.0
1.64311 -15.0813 0.0
-14.0866 -33.9569 0.0
-8.42427 -36.896 0.0
-9.03776 -32.1372 0.0
-10.1644 -30.7492 0.0
-11.5298 -29.853 0.0
-14.1208 -32.251 0.0
-18.8916 30.1329 0.0
-17.6745 30.6628 0.0
-15.5747 36.9579 0.0
-20.6841 35.7984 0.0
-20.9897 35.4665 0.0
58.1399 -27.1686 0.0
58.1614 -26.4916 0.0
48.1759 -25.5801 0.0
46.6026 -25.877 0.0
44.7204 -27.4334 0.0
44.6129 -28.5134 0.0
44.6325 -28.7476 0.0
57.9572 -27.5244 0.0
-37.4066 -1.99491 0.0
-37.483 -2.2782 0.0
-32.2588 -5.28533 0.0
-31.203 -1.57216 0.0
-31.4861 -1.08273 0.0
-33.6576 -0.595094 0.0
-36.6794 -0.532231 0.0
-3.83948 0.21103 0.0
-5.4201 1.61995 0.0
-9.6114 -1.07109 0.0
-4.41883 -5.75459 0.0
-1.98871 -6.9328 0.0
-1.61023 -6.7624 0.0
-3.60224 -0.535047 0.0
53.47 25.379 0.0
54.6377 27.9125 0.0
53.0672 31.199 0.0
51.8992 32.2935 0.0
47.4582 28.0454 0.0
47.2294 27.2249 0.0
47.52 26.6885 0.0
47.793 26.1516 0.0
-10.1477 -40.2098 0.0
-9.70399 -40.592 0.0
-5.4495 -39.5296 0.0
-8.30742 -37.3672 0.0
-13.9697 -34.4282 0.0
-14.1926 -34.947 0.0
-35.8443 11.1424 0.0
-35.7825 9.27958 0.0
-35.1008 8.31382 0.0
-29.7295 3.13302 0.0
-27.9756 4.22203 0.0
-27.1886 5.73455 0.0
-0.840106 6.62963 0.0
-0.971559 7.43098 0.0
-3.34202 9.72508 0.0
-6.53968 8.01237 0.0
-6.35638 7.09989 0.0
-5.78979 4.75704 0.0
-20.0277 2.28551 0.0
-20.0854 2.79835 0.0
-20.429 3.33236 0.0
-21.6585 4.13026 0.0
-26.154 5.63466 0.0
-26.4271 5.37498 0.0
-27.2142 3.86246 0.0
-25.0002 1.03913 0.0
-38.7885 4.31447 0.0
-40.3963 4.98776 0.0
-44.4125 1.77861 0.0
-37.6517 0.373407 0.0
-26.0157 -36.8639 0.0
-25.8073 -36.2745 0.0
-28.9725 -28.0028 0.0
-29.1922 -28.0061 0.0
-31.8529 -31.5436 0.0
-27.5302 -35.7972 0.0
21.1454 53.6575 0.0
22.2244 56.9647 0.0
16.226 56.2587 0.0
15.2336 54.6446 0.0
18.4861 51.2182 0.0
19.4136 51.3807 0.0
-20.0213 -28.9139 0.0
-19.4473 -29.1116 0.0
-13.4916 -25.8876 0.0
-16.2908 -22.9998 0.0
-18.6059 -23.5891 0.0
-19.5702 -26.4941 0.0
15.0017 11.6254 0.0
15.1553 9.80847 0.0
16.4586 8.30433 0.0
20.7677 17.4814 0.0
19.487 18.9884 0.0
19.1385 18.993 0.0
9.07885 -38.8768 0.0
9.30103 -39.1618 0.0
12.3444 -34.7185 0.0
12.2605 -34.3127 0.0
10.7177 -30.9577 0.0
[...]
<CellData Scalars="cell variable 4" Vectors="cell vector">
<DataArray type="Float64" NumberOfComponents="3" Name="cell vector" format="ascii">
0 0 0
0 0 0
0 0 0
0 0 0
0 0 0
0 0 0
0 0 0
0 0 0
0 0 0
0 0 0
0 0 0
0 0 0
0 0 0
0 0 0
0 0 0
0 0 0
0 0 0
0 0 0
0 0 0
0 0 0
0 0 0
0 0 0
0 0 0
0 0 0
0 0 0
0 0 0
0 0 0
0 0 0
0 0 0
0 0 0
0 0 0
0 0 0
0 0 0
0 0 0
0 0 0
0 0 0
0 0 0
0 0 0
0 0 0
0 0 0
0 0 0
0 0 0
0 0 0
0 0 0
0 0 0
0 0 0
0 0 0
0 0 0
0 0 0
0 0 0
0 0 0
0 0 0
0 0 0
0 0 0
0 0 0
0 0 0
0 0 0
0 0 0
0 0 0
0 0 0
0 0 0
0 0 0
0 0 0
0 0 0
0 0 0
0 0 0
0 0 0
0 0 0
0 0 0
0 0 0
0 0 0
0 0 0
0 0 0
0 0 0
0 0 0
0 0 0
0 0 0
0 0 0
0 0 0
0 0 0
0 0 0
0 0 0
0 0 0
0 0 0
0 0 0
0 0 0
0 0 0
0 0 0
0 0 0
0 0 0
0 0 0
0 0 0
0 0 0
0 0 0
0 0 0
0 0 0
0 0 0
0 0 0
0 0 0
0 0 0
0 0 0
0 0 0
0 0 0
0 0 0
0 0 0
0 0 0
0 0 0
0 0 0
0 0 0
0 0 0
0 0 0
0 0 0
0 0 0
0 0 0
0 0 0
0 0 0
0 0 0
0 0 0
0 0 0
0 0 0
0 0 0
0 0 0
0 0 0
0 0 0
0 0 0
0 0 0
0 0 0
0 0 0
0 0 0
0 0 0
0 0 0
0 0 0
0 0 0
0 0 0
0 0 0
0 0 0
0 0 0
0 0 0
0 0 0
0 0 0
0 0 0
0 0 0
0 0 0
0 0 0
0 0 0
0 0 0
0 0 0
0 0 0
0 0 0
0 0 0
0 0 0
0 0 0
0 0 0
0 0 0
0 0 0
0 0 0
0 0 0
0 0 0
0 0 0
0 0 0
0 0 0
0 0 0
0 0 0
0 0 0
0 0 0
0 0 0
0 0 0
0 0 0
0 0 0
0 0 0
0 0 0
0 0 0
0 0 0
0 0 0
0 0 0
0 0 0
0 0 0
0 0 0
0 0 0
0 0 0
0 0 0
0 0 0
0 0 0
0 0 0
0 0 0
0 0 0
0 0 0
0 0 0
0 0 0
0 0 0
0 0 0
0 0 0
0 0 0
0 0 0
0 0 0
0 0 0
0 0 0
0 0 0
0 0 0
0 0 0
0 0 0
0 0 0
0 0 0
0 0 0
0 0 0
0 0 0
0 0 0
0 0 0
0 0 0
0 0 0
0 0 0
0 0 0
0 0 0
0 0 0
0 0 0
0 0 0
0 0 0
0 0 0
0 0 0
0 0 0
0 0 0
0 0 0
0 0 0
0 0 0
0 0 0
0 0 0
0 0 0
0 0 0
0 0 0
0 0 0
0 0 0
0 0 0
0 0 0
0 0 0
0 0 0
0 0 0
0 0 0
0 0 0
0 0 0
0 0 0
0 0 0
0 0 0
0 0 0
0 0 0
0 0 0
0 0 0
0 0 0
0 0 0
0 0 0
0 0 0
0 0 0
0 0 0
0 0 0
0 0 0
0 0 0
0 0 0
0 0 0
0 0 0
0 0 0
0 0 0
0 0 0
0 0 0
0 0 0
0 0 0
0 0 0
0 0 0
0 0 0
0 0 0
0 0 0
0 0 0
0 0 0
0 0 0
0 0 0
0 0 0
0 0 0
0 0 0
0 0 0
0 0 0
0 0 0
0 0 0
0 0 0
0 0 0
0 0 0
0 0 0
0 0 0
0 0 0
0 0 0
0 0 0
0 0 0
0 0 0
0 0 0
0 0 0
0 0 0
0 0 0
0 0 0
0 0 0
0 0 0
0 0 0
0 0 0
0 0 0
0 0 0
0 0 0
0 0 0
0 0 0
0 0 0
0 0 0
0 0 0
0 0 0
0 0 0
0 0 0
0 0 0
0 0 0
0 0 0
0 0 0
0 0 0
0 0 0
0 0 0
0 0 0
0 0 0
0 0 0
0 0 0
0 0 0
0 0 0
0 0 0
0 0 0
0 0 0
0 0 0
0 0 0
0 0 0
0 0 0
0 0 0
0 0 0
0 0 0
0 0 0
0 0 0
0 0 0
0 0 0
0 0 0
0 0 0
0 0 0
0 0 0
0 0 0
0 0 0
0 0 0
0 0 0
0 0 0
0 0 0
0 0 0
0 0 0
0 0 0
0 0 0
0 0 0
0 0 0
0 0 0
0 0 0
0 0 0
0 0 0
0 0 0
0 0 0
0 0 0
0 0 0
0 0 0
0 0 0
0 0 0
0 0 0
0 0 0
0 0 0
0 0 0
0 0 0
0 0 0
0 0 0
0 0 0
0 0 0
0 0 0
0 0 0
0 0 0
0 0 0
0 0 0
0 0 0
0 0 0
0 0 0
0 0 0
0 0 0
0 0 0
0 0 0
0 0 0
0 0 0
0 0 0
0 0 0
0 0 0
0 0 0
0 0 0
0 0 0
0 0 0
0 0 0
0 0 0
0 0 0
0 0 0
0 0 0
0 0 0
0 0 0
0 0 0
0 0 0
0 0 0
0 0 0
0 0 0
0 0 0
0 0 0
0 0 0
0 0 0
0 0 0
0 0 0
0 0 0
0 0 0
0 0 0
0 0 0
0 0 0
0 0 0
0 0 0
0 0 0
0 0 0
0 0 0
0 0 0
0 0 0
0 0 0
0 0 0
</DataArray>
<DataArray type="Float64" Name="cell vector length" format="ascii">
0 0 0 0 0 0 0 0 0 0 0 0 0 0 0 0 0 0 0 0 0 0 0 0 0 0 0 0 0 0 0 0 0 0 0 0 0 0 0 0 0 0 0 0 0 0 0 0 0 0 0 0 0 0 0 0 0 0 0 0 0 0 0 0 0 0 0 0 0 0 0 0 0 0 0 0 0 0 0 0 0 0 0 0 0 0 0 0 0 0 0 0 0 0 0 0 0 0 0 0 0 0 0 0 0 0 0 0 0 0 0 0 0 0 0 0 0 0 0 0 0 0 0 0 0 0 0 0 0 0 0 0 0 0 0 0 0 0 0 0 0 0 0 0 0 0 0 0 0 0 0 0 0 0 0 0 0 0 0 0 0 0 0 0 0 0 0 0 0 0 0 0 0 0 0 0 0 0 0 0 0 0 0 0 0 0 0 0 0 0 0 0 0 0 0 0 0 0 0 0 0 0 0 0 0 0 0 0 0 0 0 0 0 0 0 0 0 0 0 0 0 0 0 0 0 0 0 0 0 0 0 0 0 0 0 0 0 0 0 0 0 0 0 0 0 0 0 0 0 0 0 0 0 0 0 0 0 0 0 0 0 0 0 0 0 0 0 0 0 0 0 0 0 0 0 0 0 0 0 0 0 0 0 0 0 0 0 0 0 0 0 0 0 0 0 0 0 0 0 0 0 0 0 0 0 0 0 0 0 0 0 0 0 0 0 0 0 0 0 0 0 0 0 0 0 0 0 0 0 0 0 0 0 0 0 0 0 0 0 0 0 0 0 0 0 0 0 0 0 0 0 0 0 0 0 0 0 0 0 0 0 0 0 0 0 0 0 0 0 0 0 0 0 0 0 0 0 0 0 0 0 0 0 0 0 0 0 0 0 0 0 0 0 0 0 0 0 0 0 0 0 0 0 0 0 0 0 0 0 0 0 0 0 0 0 0 0 0 0 0 0 0 0 0 0 0 
</DataArray>
<DataArray type="Float64" Name="cell variable 4" format="ascii">
1.11547 1.06245 0.789941 1.07467 0.631062 0.94865 1.11547 0.94865 1.11547 0.8063 1.14226 1.04461 0.8063 1.04461 0.912892 0.919422 1.07467 1.10185 1.10185 0.94865 0.919422 0.99432 0.99432 1.00681 1.07467 1.10185 1.00681 1.14226 0.99432 0.912892 0.980966 0.99432 0.980966 1.04461 1.11547 0.919422 0.919422 0.657465 0.912892 0.763876 0.912892 0.848855 0.789941 0.919422 0.789941 1.10185 1.11547 0.848855 0.980966 0.657465 1.11547 1.11547 1.12037 1.04461 1.11547 1.07467 1.12037 1.06245 1.11547 0.912892 1.10185 1.11547 1.04461 1.07467 0.912892 0.919422 1.12037 0.848855 1.04461 1.00681 1.12037 1.12037 1.00681 0.90618 0.626025 1.04461 1.14226 0.94865 0.90618 1.11547 0.8063 0.919422 1.11547 0.848855 1.11547 0.912892 1.04461 1.10185 1.14226 1.07467 0.94865 0.980966 0.8063 0.657465 0.980966 0.980966 1.00681 0.919422 1.12037 1.11547 1.04461 1.04461 0.919422 0.94865 0.919422 0.919422 0.99432 1.12037 0.631062 0.912892 0.763876 1.00681 1.10185 0.848855 0.912892 1.14226 1.14226 1.07467 1.11547 0.789941 1.14226 1.07467 1.00681 0.94865 1.06245 0.657465 0.789941 1.06245 0.99432 1.04461 1.11547 1.11547 1.00681 1.07467 1.06245 1.06245 1.06245 0.99432 1.04461 0.919422 0.90618 1.00681 1.12037 0.763876 0.90618 0.99432 1.07467 0.99432 0.980966 0.848855 1.04461 0.980966 0.919422 0.919422 1.00681 0.8063 0.912892 1.12037 0.631062 1.06245 1.07467 0.94865 1.04461 1.06245 1.00681 1.14226 1.04461 1.11547 1.11547 1.10185 1.10185 0.919422 1.12037 0.919422 0.848855 0.94865 1.00681 1.00681 1.12037 0.919422 1.12037 1.00681 1.00681 1.11547 1.00681 0.980966 0.763876 1.11547 1.04461 1.06245 1.07467 0.980966 1.07467 0.90618 0.980966 0.789941 0.94865 0.763876 0.8063 0.848855 0.94865 0.90618 1.11547 0.912892 1.12037 1.04461 0.919422 0.90618 0.763876 0.980966 1.07467 1.10185 1.07467 1.06245 0.980966 1.10185 0.980966 0.673042 1.07467 1.07467 1.04461 1.04461 0.790107 1.10185 1.04461 0.912892 1.11547 1.10185 0.912892 0.8063 1.07467 0.90618 0.848855 1.10185 1.04461 0.919422 1.10185 0.912892 0.980966 0.631062 1.10185 0.94865 0.919422 1.11547 0.919422 1.00681 0.90618 0.763876 1.07467 1.07467 1.10185 0.848855 0.626025 1.14226 0.912892 1.12037 1.10185 0.99432 1.06245 1.14226 1.11547 0.99432 1.06245 0.919422 1.06245 1.14226 1.14226 0.912892 0.912892 0.919422 1.11547 0.8063 1.12037 1.04461 1.14226 1.11547 0.94865 0.848855 0.94865 1.11547 1.00681 1.06245 0.8063 1.04461 1.14226 0.912892 1.12037 1.14226 1.10185 1.00681 0.912892 1.14226 0.94865 0.90618 0.980966 1.07467 1.00681 1.12037 1.06245 0.848855 0.919422 1.10185 1.12037 1.06245 0.912892 0.848855 0.657465 1.07467 0.94865 0.90618 0.90618 0.919422 1.12037 1.07467 0.912892 0.848855 1.10185 1.11547 0.980966 1.10185 1.11547 0.789941 0.789941 0.980966 0.919422 0.848855 0.789941 1.14226 1.07467 1.00681 1.04461 1.14226 0.8063 1.11547 0.94865 0.980966 0.90618 0.980966 1.04461 0.657465 0.90618 0.919422 1.00681 0.94865 0.99432 1.06245 0.8063 0.980966 0.99432 1.12037 0.90618 1.12037 0.919422 0.657465 1.00681 0.789941 1.00681 0.8063 0.8063 1.14226 1.12037 1.07467 0.980966 0.919422 0.919422 1.14226 0.980966 1.06245 0.789941 1.11547 0.980966 1.12037 1.00681 1.10185 0.90618 1.04461 1.12037 0.919422 1.10185 0.626025 0.66381 1.11547 1.06245 1.00681 0.912892 0.919422 1.04461 0.90618 1.14226 0.763876 1.07467 1.04461 0.90618 0.657465 1.04461 1.11547 0.763876 1.11547 1.06245 0.980966 0.99432 1.00681 0.90618 0.980966 1.00681 0.789941 1.00681 1.11547 0.94865 0.99432 1.10185 1.00681 0.94865 1.04461 0.94865 1.06245 0.90618 0.94865 1.07467 0.8063 1.04461 1.00681 0.94865 0.912892 1.10185 0.919422 
</DataArray>
<DataArray type="Float64" Name="cell variable 5" format="ascii">
0.00797274 0.00878122 0.0157727 0.00858434 0.0244954 0.0109898 0.00797274 0.0109898 0.00797274 0.0151488 0.00760594 0.00908091 0.0151488 0.00908091 0.0118572 0.0116913 0.00858434 0.00816951 0.00816951 0.0109898 0.0116913 0.0100133 0.0100133 0.00976872 0.00858434 0.00816951 0.00976872 0.00760594 0.0100133 0.0118572 0.0102849 0.0100133 0.0102849 0.00908091 0.00797274 0.0116913 0.0116913 0.0226112 0.0118572 0.016849 0.0118572 0.0136882 0.0157727 0.0116913 0.0157727 0.00816951 0.00797274 0.0136882 0.0102849 0.0226112 0.00797274 0.00797274 0.00790366 0.00908091 0.00797274 0.00858434 0.00790366 0.00878122 0.00797274 0.0118572 0.00816951 0.00797274 0.00908091 0.00858434 0.0118572 0.0116913 0.00790366 0.0136882 0.00908091 0.00976872 0.00790366 0.00790366 0.00976872 0.0120314 0.0248813 0.00908091 0.00760594 0.0109898 0.0120314 0.00797274 0.0151488 0.0116913 0.00797274 0.0136882 0.00797274 0.0118572 0.00908091 0.00816951 0.00760594 0.00858434 0.0109898 0.0102849 0.0151488 0.0226112 0.0102849 0.0102849 0.00976872 0.0116913 0.00790366 0.00797274 0.00908091 0.00908091 0.0116913 0.0109898 0.0116913 0.0116913 0.0100133 0.00790366 0.0244954 0.0118572 0.016849 0.00976872 0.00816951 0.0136882 0.0118572 0.00760594 0.00760594 0.00858434 0.00797274 0.0157727 0.00760594 0.00858434 0.00976872 0.0109898 0.00878122 0.0226112 0.0157727 0.00878122 0.0100133 0.00908091 0.00797274 0.00797274 0.00976872 0.00858434 0.00878122 0.00878122 0.00878122 0.0100133 0.00908091 0.0116913 0.0120314 0.00976872 0.00790366 0.016849 0.0120314 0.0100133 0.00858434 0.0100133 0.0102849 0.0136882 0.00908091 0.0102849 0.0116913 0.0116913 0.00976872 0.0151488 0.0118572 0.00790366 0.0244954 0.00878122 0.00858434 0.0109898 0.00908091 0.00878122 0.00976872 0.00760594 0.00908091 0.00797274 0.00797274 0.00816951 0.00816951 0.0116913 0.00790366 0.0116913 0.0136882 0.0109898 0.00976872 0.00976872 0.00790366 0.0116913 0.00790366 0.00976872 0.00976872 0.00797274 0.00976872 0.0102849 0.016849 0.00797274 0.00908091 0.00878122 0.00858434 0.0102849 0.00858434 0.0120314 0.0102849 0.0157727 0.0109898 0.016849 0.0151488 0.0136882 0.0109898 0.0120314 0.00797274 0.0118572 0.00790366 0.00908091 0.0116913 0.0120314 0.016849 0.0102849 0.00858434 0.00816951 0.00858434 0.00878122 0.0102849 0.00816951 0.0102849 0.021599 0.00858434 0.00858434 0.00908091 0.00908091 0.0157662 0.00816951 0.00908091 0.0118572 0.00797274 0.00816951 0.0118572 0.0151488 0.00858434 0.0120314 0.0136882 0.00816951 0.00908091 0.0116913 0.00816951 0.0118572 0.0102849 0.0244954 0.00816951 0.0109898 0.0116913 0.00797274 0.0116913 0.00976872 0.0120314 0.016849 0.00858434 0.00858434 0.00816951 0.0136882 0.0248813 0.00760594 0.0118572 0.00790366 0.00816951 0.0100133 0.00878122 0.00760594 0.00797274 0.0100133 0.00878122 0.0116913 0.00878122 0.00760594 0.00760594 0.0118572 0.0118572 0.0116913 0.00797274 0.0151488 0.00790366 0.00908091 0.00760594 0.00797274 0.0109898 0.0136882 0.0109898 0.00797274 0.00976872 0.00878122 0.0151488 0.00908091 0.00760594 0.0118572 0.00790366 0.00760594 0.00816951 0.00976872 0.0118572 0.00760594 0.0109898 0.0120314 0.0102849 0.00858434 0.00976872 0.00790366 0.00878122 0.0136882 0.0116913 0.00816951 0.00790366 0.00878122 0.0118572 0.0136882 0.0226112 0.00858434 0.0109898 0.0120314 0.0120314 0.0116913 0.00790366 0.00858434 0.0118572 0.0136882 0.00816951 0.00797274 0.0102849 0.00816951 0.00797274 0.0157727 0.0157727 0.0102849 0.0116913 0.0136882 0.0157727 0.00760594 0.00858434 0.00976872 0.00908091 0.00760594 0.0151488 0.00797274 0.0109898 0.0102849 0.0120314 0.0102849 0.00908091 0.0226112 0.0120314 0.0116913 0.00976872 0.0109898 0.0100133 0.00878122 0.0151488 0.0102849 0.0100133 0.00790366 0.0120314 0.00790366 0.0116913 0.0226112 0.00976872 0.0157727 0.00976872 0.0151488 0.0151488 0.00760594 0.00790366 0.00858434 0.0102849 0.0116913 0.0116913 0.00760594 0.0102849 0.00878122 0.0157727 0.00797274 0.0102849 0.00790366 0.00976872 0.00816951 0.0120314 0.00908091 0.00790366 0.0116913 0.00816951 0.0248813 0.0221905 0.00797274 0.00878122 0.00976872 0.0118572 0.0116913 0.00908091 0.0120314 0.00760594 0.016849 0.00858434 0.00908091 0.0120314 0.0226112 0.00908091 0.00797274 0.016849 0.00797274 0.00878122 0.0102849 0.0100133 0.00976872 0.0120314 0.0102849 0.00976872 0.0157727 0.00976872 0.00797274 0.0109898 0.0100133 0.00816951 0.00976872 0.0109898 0.00908091 0.0109898 0.00878122 0.0120314 0.0109898 0.00858434 0.0151488 0.00908091 0.00976872 0.0109898 0.0118572 0.00816951 0.0116913 
</DataArray>
<DataArray type="Float64" Name="cell variable 6" format="ascii">
4.32387e-06 5.74138e-06 3.156e-05 5.3719e-06 0.000110922 1.10661e-05 4.32387e-06 1.10661e-05 4.32387e-06 2.80904e-05 3.76475e-06 6.33494e-06 2.80904e-05 6.33494e-06 1.38076e-05 1.32528e-05 5.3719e-06 4.64493e-06 4.64493e-06 1.10661e-05 1.32528e-05 8.43313e-06 8.43313e-06 7.8448e-06 5.3719e-06 4.64493e-06 7.8448e-06 3.76475e-06 8.43313e-06 1.38076e-05 9.11938e-06 8.43313e-06 9.11938e-06 6.33494e-06 4.32387e-06 1.32528e-05 1.32528e-05 8.84138e-05 1.38076e-05 3.81646e-05 1.38076e-05 2.09522e-05 3.156e-05 1.32528e-05 3.156e-05 4.64493e-06 4.32387e-06 2.09522e-05 9.11938e-06 8.84138e-05 4.32387e-06 4.32387e-06 4.21468e-06 6.33494e-06 4.32387e-06 5.3719e-06 4.21468e-06 5.74138e-06 4.32387e-06 1.38076e-05 4.64493e-06 4.32387e-06 6.33494e-06 5.3719e-06 1.38076e-05 1.32528e-05 4.21468e-06 2.09522e-05 6.33494e-06 7.8448e-06 4.21468e-06 4.21468e-06 7.8448e-06 1.4406e-05 0.000115922 6.33494e-06 3.76475e-06 1.10661e-05 1.4406e-05 4.32387e-06 2.80904e-05 1.32528e-05 4.32387e-06 2.09522e-05 4.32387e-06 1.38076e-05 6.33494e-06 4.64493e-06 3.76475e-06 5.3719e-06 1.10661e-05 9.11938e-06 2.80904e-05 8.84138e-05 9.11938e-06 9.11938e-06 7.8448e-06 1.32528e-05 4.21468e-06 4.32387e-06 6.33494e-06 6.33494e-06 1.32528e-05 1.10661e-05 1.32528e-05 1.32528e-05 8.43313e-06 4.21468e-06 0.000110922 1.38076e-05 3.81646e-05 7.8448e-06 4.64493e-06 2.09522e-05 1.38076e-05 3.76475e-06 3.76475e-06 5.3719e-06 4.32387e-06 3.156e-05 3.76475e-06 5.3719e-06 7.8448e-06 1.10661e-05 5.74138e-06 8.84138e-05 3.156e-05 5.74138e-06 8.43313e-06 6.33494e-06 4.32387e-06 4.32387e-06 7.8448e-06 5.3719e-06 5.74138e-06 5.74138e-06 5.74138e-06 8.43313e-06 6.33494e-06 1.32528e-05 1.4406e-05 7.8448e-06 4.21468e-06 3.81646e-05 1.4406e-05 8.43313e-06 5.3719e-06 8.43313e-06 9.11938e-06 2.09522e-05 6.33494e-06 9.11938e-06 1.32528e-05 1.32528e-05 7.8448e-06 2.80904e-05 1.38076e-05 4.21468e-06 0.000110922 5.74138e-06 5.3719e-06 1.10661e-05 6.33494e-06 5.74138e-06 7.8448e-06 3.76475e-06 6.33494e-06 4.32387e-06 4.32387e-06 4.64493e-06 4.64493e-06 1.32528e-05 4.21468e-06 1.32528e-05 2.09522e-05 1.10661e-05 7.8448e-06 7.8448e-06 4.21468e-06 1.32528e-05 4.21468e-06 7.8448e-06 7.8448e-06 4.32387e-06 7.8448e-06 9.11938e-06 3.81646e-05 4.32387e-06 6.33494e-06 5.74138e-06 5.3719e-06 9.11938e-06 5.3719e-06 1.4406e-05 9.11938e-06 3.156e-05 1.10661e-05 3.81646e-05 2.80904e-05 2.09522e-05 1.10661e-05 1.4406e-05 4.32387e-06 1.38076e-05 4.21468e-06 6.33494e-06 1.32528e-05 1.4406e-05 3.81646e-05 9.11938e-06 5.3719e-06 4.64493e-06 5.3719e-06 5.74138e-06 9.11938e-06 4.64493e-06 9.11938e-06 7.76673e-05 5.3719e-06 5.3719e-06 6.33494e-06 6.33494e-06 3.15261e-05 4.64493e-06 6.33494e-06 1.38076e-05 4.32387e-06 4.64493e-06 1.38076e-05 2.80904e-05 5.3719e-06 1.4406e-05 2.09522e-05 4.64493e-06 6.33494e-06 1.32528e-05 4.64493e-06 1.38076e-05 9.11938e-06 0.000110922 4.64493e-06 1.10661e-05 1.32528e-05 4.32387e-06 1.32528e-05 7.8448e-06 1.4406e-05 3.81646e-05 5.3719e-06 5.3719e-06 4.64493e-06 2.09522e-05 0.000115922 3.76475e-06 1.38076e-05 4.21468e-06 4.64493e-06 8.43313e-06 5.74138e-06 3.76475e-06 4.32387e-06 8.43313e-06 5.74138e-06 1.32528e-05 5.74138e-06 3.76475e-06 3.76475e-06 1.38076e-05 1.38076e-05 1.32528e-05 4.32387e-06 2.80904e-05 4.21468e-06 6.33494e-06 3.76475e-06 4.32387e-06 1.10661e-05 2.09522e-05 1.10661e-05 4.32387e-06 7.8448e-06 5.74138e-06 2.80904e-05 6.33494e-06 3.76475e-06 1.38076e-05 4.21468e-06 3.76475e-06 4.64493e-06 7.8448e-06 1.38076e-05 3.76475e-06 1.10661e-05 1.4406e-05 9.11938e-06 5.3719e-06 7.8448e-06 4.21468e-06 5.74138e-06 2.09522e-05 1.32528e-05 4.64493e-06 4.21468e-06 5.74138e-06 1.38076e-05 2.09522e-05 8.84138e-05 5.3719e-06 1.10661e-05 1.4406e-05 1.4406e-05 1.32528e-05 4.21468e-06 5.3719e-06 1.38076e-05 2.09522e-05 4.64493e-06 4.32387e-06 9.11938e-06 4.64493e-06 4.32387e-06 3.156e-05 3.156e-05 9.11938e-06 1.32528e-05 2.09522e-05 3.156e-05 3.76475e-06 5.3719e-06 7.8448e-06 6.33494e-06 3.76475e-06 2.80904e-05 4.32387e-06 1.10661e-05 9.11938e-06 1.4406e-05 9.11938e-06 6.33494e-06 8.84138e-05 1.4406e-05 1.32528e-05 7.8448e-06 1.10661e-05 8.43313e-06 5.74138e-06 2.80904e-05 9.11938e-06 8.43313e-06 4.21468e-06 1.4406e-05 4.21468e-06 1.32528e-05 8.84138e-05 7.8448e-06 3.156e-05 7.8448e-06 2.80904e-05 2.80904e-05 3.76475e-06 4.21468e-06 5.3719e-06 9.11938e-06 1.32528e-05 1.32528e-05 3.76475e-06 9.11938e-06 5.74138e-06 3.156e-05 4.32387e-06 9.11938e-06 4.21468e-06 7.8448e-06 4.64493e-06 1.4406e-05 6.33494e-06 4.21468e-06 1.32528e-05 4.64493e-06 0.000115922 8.3838e-05 4.32387e-06 5.74138e-06 7.8448e-06 1.38076e-05 1.32528e-05 6.33494e-06 1.4406e-05 3.76475e-06 3.81646e-05 5.3719e-06 6.33494e-06 1.4406e-05 8.84138e-05 6.33494e-06 4.32387e-06 3.81646e-05 4.32387e-06 5.74138e-06 9.11938e-06 8.43313e-06 7.8448e-06 1.4406e-05 9.11938e-06 7.8448e-06 3.156e-05 7.8448e-06 4.32387e-06 1.10661e-05 8.43313e-06 4.64493e-06 7.8448e-06 1.10661e-05 6.33494e-06 1.10661e-05 5.74138e-06 1.4406e-05 1.10661e-05 5.3719e-06 2.80904e-05 6.33494e-06 7.8448e-06 1.10661e-05 1.38076e-05 4.64493e-06 1.32528e-05 
</DataArray>
<DataArray type="Float64" Name="cell variable 7" format="ascii">