<VTKFile type="UnstructuredGrid" version="0.1">
<UnstructuredGrid>
<Piece  NumberOfPoints="    2499" NumberOfCells="     417">
<Points>
<DataArray type="Float64" NumberOfComponents="3" format="ascii">
-14.2035 -51.7981 0.0
-12.3944 -54.2036 0.0
-9.45983 -48.5342 0.0
-9.7651 -47.1561 0.0
-10.6004 -47.1559 0.0
-11.5335 -47.1584 0.0
-13.5181 -48.3058 0.0
-13.9865 -50.2267 0.0
30.8122 47.3039 0.0
29.3206 47.411 0.0
28.3161 45.1081 0.0
28.1231 44.6742 0.0
28.5892 40.7934 0.0
29.3815 40.1731 0.0
34.3343 40.3047 0.0
34.5477 41.7817 0.0
34.1394 -24.6637 0.0
31.2164 -25.9515 0.0
36.3529 -28.4641 0.0
37.0727 -28.3356 0.0
37.8837 -28.0512 0.0
37.1083 -23.4113 0.0
-2.74301 23.8591 0.0
-7.42481 20.006 0.0
-7.00699 16.8769 0.0
-1.66803 19.7249 0.0
-0.226096 21.1538 0.0
-0.968108 21.9926 0.0
-20.4956 -28.0176 0.0
-20.4389 -25.8837 0.0
-20.5118 -25.2539 0.0
-21.0599 -24.5822 0.0
-24.145 -24.0311 0.0
-25.0384 -29.1563 0.0
17.0852 -26.7926 0.0
16.5045 -26.4277 0.0
6.41303 -28.6832 0.0
7.0163 -29.1536 0.0
9.25007 -30.7599 0.0
12.132 -29.3023 0.0
-48.2991 -11.3239 0.0
-45.912 -14.5794 0.0
-45.063 -14.9894 0.0
-43.4071 -14.5327 0.0
-43.7666 -9.94936 0.0
-45.0847 -6.41491 0.0
-48.659 -10.7592 0.0
20.2409 -22.9339 0.0
18.8755 -20.3526 0.0
14.8343 -23.0945 0.0
15.2136 -24.6633 0.0
17.141 -25.9195 0.0
17.7218 -26.2844 0.0
18.1537 -26.3556 0.0
39.0834 5.98101 0.0
39.0621 5.69638 0.0
44.5984 8.46296 0.0
44.253 11.7721 0.0
41.1181 11.1946 0.0
23.074 -51.43 0.0
18.5643 -50.5015 0.0
17.6193 -51.0239 0.0
16.5176 -54.905 0.0
18.6561 -56.7238 0.0
19.0929 -56.7321 0.0
22.7131 -55.9498 0.0
3.55821 20.4805 0.0
3.45344 19.6781 0.0
7.8952 14.8167 0.0
9.21711 14.4559 0.0
10.2655 14.4344 0.0
10.8128 19.5579 0.0
9.8871 20.1682 0.0
-0.294668 -18.5915 0.0
-0.1547 -22.8998 0.0
0.429403 -22.9532 0.0
5.30869 -21.5325 0.0
5.8206 -20.2593 0.0
26.4987 31.0592 0.0
26.8207 31.786 0.0
22.9834 39.8632 0.0
22.256 40.021 0.0
20.3837 40.3562 0.0
19.3991 38.4408 0.0
19.4582 37.3045 0.0
-14.8835 -13.1658 0.0
-16.0792 -16.5282 0.0
-14.7121 -17.576 0.0
-9.59546 -19.1637 0.0
-8.25076 -18.0382 0.0
-7.86789 -17.1262 0.0
-9.3306 -14.4587 0.0
49.0972 -3.92841 0.0
44.5665 -3.37893 0.0
42.8696 -9.82544 0.0
45.6275 -9.90533 0.0
48.2563 -6.57428 0.0
49.6185 -4.61745 0.0
-19.9043 -44.8396 0.0
-20.502 -44.6365 0.0
-24.6411 -50.8399 0.0
-21.7424 -52.7645 0.0
-21.3982 -52.7765 0.0
-20.3322 -48.5237 0.0
44.1403 -19.5047 0.0
41.3857 -20.0176 0.0
41.0905 -26.8541 0.0
44.9147 -23.9187 0.0
44.3585 -19.9463 0.0
-58.136 17.7147 0.0
-55.0237 15.4754 0.0
-53.0786 16.7191 0.0
-53.5175 21.3153 0.0
48.4131 -7.03542 0.0
45.7843 -10.3665 0.0
45.4291 -13.0704 0.0
46.0336 -14.7331 0.0
49.8256 -11.5478 0.0
44.7672 -13.2663 0.0
45.1225 -10.5623 0.0
42.3646 -10.4825 0.0
37.4997 -12.0772 0.0
37.0853 -13.5791 0.0
37.6141 -16.4662 0.0
-45.022 -3.72498 0.0
-42.5535 -3.18551 0.0
-42.8716 3.26819 0.0
-45.109 5.22335 0.0
-45.8289 4.47369 0.0
-46.315 1.62953 0.0
-46.063 -2.82298 0.0
-25.365 28.6835 0.0
-28.2173 25.9845 0.0
-29.1235 24.3397 0.0
-28.2438 20.6638 0.0
-25.4249 20.6453 0.0
-24.0781 23.9019 0.0
37.3652 37.678 0.0
40.3251 40.9365 0.0
38.4863 46.8397 0.0
35.2253 41.6367 0.0
35.012 40.1597 0.0
36.6104 38.4742 0.0
-15.0263 6.16372 0.0
-13.1227 8.89356 0.0
-13.6914 11.2307 0.0
-14.2478 11.7187 0.0
-18.5487 10.6342 0.0
-34.8821 37.3605 0.0
-34.3418 36.7701 0.0
-28.4872 42.4776 0.0
-28.2754 43.1767 0.0
-29.5335 44.2977 0.0
-32.7398 42.6463 0.0
-52.2553 24.4936 0.0
-53.3436 24.0475 0.0
-53.1085 21.4763 0.0
-52.6696 16.8801 0.0
-49.6084 16.4005 0.0
-47.1617 17.0926 0.0
-49.0754 19.8915 0.0
-1.06103 -49.1149 0.0
0.0102532 -49.275 0.0
0.397387 -40.8165 0.0
0.18663 -40.6585 0.0
-3.30658 -42.0751 0.0
-13.3492 54.5774 0.0
-14.7572 54.5069 0.0
-16.2221 47.1554 0.0
-16.0011 46.1905 0.0
-13.5617 46.7871 0.0
-11.999 52.9369 0.0
-12.5217 54.1405 0.0
-49.683 15.796 0.0
-52.7443 16.2756 0.0
-54.6893 15.0319 0.0
-53.7489 11.6893 0.0
-48.9517 10.8966 0.0
-31.4757 -47.2408 0.0
-32.2195 -47.7392 0.0
-33.953 -48.9918 0.0
-33.4865 -52.1016 0.0
-32.1968 -53.1553 0.0
-32.0095 -53.16 0.0
-28.9107 -51.416 0.0
10.3024 -46.0634 0.0
11.9651 -41.4149 0.0
11.7418 -40.9467 0.0
7.19112 -41.8847 0.0
4.98124 -42.6562 0.0
2.14625 51.9286 0.0
0.312271 49.5157 0.0
3.99846 48.3938 0.0
7.54861 50.8444 0.0
4.37431 53.0851 0.0
10.7844 30.0014 0.0
10.9917 27.9118 0.0
14.9885 24.419 0.0
15.4498 24.6544 0.0
15.8708 25.0519 0.0
16.0145 27.5832 0.0
16.0758 28.8379 0.0
14.4427 31.1075 0.0
11.7833 31.3272 0.0
11.4013 31.3053 0.0
8.42768 50.0112 0.0
7.43563 50.3687 0.0
3.88548 47.9181 0.0
-1.9663 43.6978 0.0
-0.189969 41.9627 0.0
0.0477969 41.8524 0.0
-46.259 30.7679 0.0
-44.4878 28.0583 0.0
-43.6243 28.0624 0.0
-41.7118 34.1424 0.0
-43.4263 35.609 0.0
-46.3662 8.96868 0.0
-48.8981 10.4383 0.0
-53.6952 11.231 0.0
-54.1798 9.7293 0.0
-53.4898 6.42676 0.0
-5.76374 44.6637 0.0
-4.09274 44.6576 0.0
-0.397812 49.3337 0.0
1.43617 51.7466 0.0
0.715886 51.769 0.0
-5.77892 51.2597 0.0
-33.8813 -19.4378 0.0
-36.6527 -16.2644 0.0
-40.0188 -15.1383 0.0
-41.2183 -15.632 0.0
-40.5579 -17.6469 0.0
-37.7328 -21.7793 0.0
-30.0126 35.0208 0.0
-30.9688 34.812 0.0
-30.7024 26.031 0.0
-30.0655 25.1714 0.0
-29.4551 24.9311 0.0
-28.5489 26.5759 0.0
-29.2032 34.5769 0.0
12.5256 43.0563 0.0
15.0094 43.8257 0.0
14.1689 50.0233 0.0
11.6435 49.4677 0.0
10.7792 47.5561 0.0
-10.2753 -38.3992 0.0
-13.5088 -39.407 0.0
-13.2315 -40.3991 0.0
-11.4872 -46.3411 0.0
-10.5541 -46.3386 0.0
5.25915 55.3596 0.0
4.86374 53.251 0.0
8.03803 51.0104 0.0
9.03008 50.6529 0.0
11.2178 50.0351 0.0
13.7432 50.5907 0.0
14.0003 50.7226 0.0
35.1752 15.3328 0.0
37.1086 10.048 0.0
38.6933 6.17487 0.0
40.7281 11.3885 0.0
40.6754 11.5124 0.0
-23.0537 -18.0345 0.0
-25.2717 -16.2374 0.0
-28.0363 -14.7109 0.0
-28.9585 -20.7138 0.0
-27.3178 -21.3995 0.0
10.3205 47.2669 0.0
2.84273 42.2629 0.0
10.7553 41.5534 0.0
12.067 42.7671 0.0
28.1919 3.45633 0.0
26.8288 2.25832 0.0
23.856 -5.50589 0.0
27.201 -3.57789 0.0
28.9486 3.07049 0.0
13.3437 -15.3487 0.0
17.514 -11.6616 0.0
14.4536 -10.4237 0.0
11.4319 -12.2663 0.0
10.5005 -13.0164 0.0
10.4646 -16.3157 0.0
11.7449 -16.4919 0.0
33.9388 6.96317 0.0
33.913 4.29943 0.0
34.8974 3.50829 0.0
35.7722 3.29663 0.0
38.3148 4.4842 0.0
38.4656 5.39464 0.0
38.4869 5.67928 0.0
36.9022 9.5524 0.0
-8.31645 -46.6411 0.0
-9.16719 -47.1857 0.0
-8.86192 -48.5638 0.0
-7.05548 -54.4317 0.0
-4.72698 -53.3638 0.0
-2.01789 -49.8128 0.0
22.5067 -21.4416 0.0
20.6129 -23.0695 0.0
18.5256 -26.4912 0.0
19.0483 -27.1217 0.0
21.5233 -27.1107 0.0
23.8701 -24.8865 0.0
38.991 18.1755 0.0
40.93 13.081 0.0
46.2956 19.1187 0.0
-38.227 7.03869 0.0
-37.9143 7.49578 0.0
-38.1234 10.0195 0.0
-40.8882 11.5371 0.0
-43.4518 11.998 0.0
-44.9528 8.85976 0.0
-44.6611 7.67694 0.0
-17.323 48.294 0.0
-20.0397 54.9948 0.0
-21.0234 55.282 0.0
-21.9063 54.4698 0.0
-22.1354 50.7202 0.0
0.294345 -49.3596 0.0
0.673763 -49.4784 0.0
2.19569 -48.9448 0.0
3.4008 -47.4806 0.0
3.26472 -42.9896 0.0
2.73083 -41.9134 0.0
0.681479 -40.9011 0.0
-35.5597 29.0112 0.0
-33.9099 29.5273 0.0
-33.6816 34.8328 0.0
-34.6944 35.9823 0.0
-35.2347 36.5727 0.0
-37.1983 36.5564 0.0
15.4972 -60.7769 0.0
18.0428 -57.1505 0.0
15.9042 -55.3317 0.0
15.4787 -55.4048 0.0
11.6661 -56.0067 0.0
9.82269 -57.0767 0.0
9.39614 -59.0209 0.0
26.1706 27.5225 0.0
24.8449 24.7037 0.0
24.4058 23.3866 0.0
31.678 21.4345 0.0
31.3519 22.2886 0.0
28.8482 27.189 0.0
27.2472 28.1432 0.0
43.865 0.917662 0.0
45.3859 1.93396 0.0
51.328 10.1848 0.0
50.7642 10.8107 0.0
45.4635 6.16294 0.0
43.0894 2.28828 0.0
14.4948 -4.4806 0.0
12.0087 -2.85464 0.0
8.56744 -8.65667 0.0
9.87212 -11.9661 0.0
10.3081 -12.4349 0.0
11.2396 -11.6849 0.0
27.6013 -3.45688 0.0
30.1744 -4.32625 0.0
34.3534 2.92684 0.0
33.369 3.71798 0.0
31.1113 3.89114 0.0
29.3488 3.1915 0.0
45.4627 -15.3349 0.0
44.8582 -13.6722 0.0
37.7051 -16.8721 0.0
37.651 -17.0834 0.0
37.5354 -18.3924 0.0
38.6567 -19.6076 0.0
41.2807 -19.4509 0.0
44.0354 -18.9379 0.0
45.0126 -17.5578 0.0
21.3664 -35.6192 0.0
21.0958 -34.8191 0.0
17.2167 -32.2464 0.0
16.4346 -32.6343 0.0
12.5453 -34.5772 0.0
13.1551 -36.2255 0.0
-7.54722 -18.7494 0.0
-8.89192 -19.875 0.0
-8.85425 -20.9829 0.0
-3.45632 -27.6848 0.0
-2.36017 -28.2871 0.0
-1.41626 -23.7454 0.0
-13.1939 21.7237 0.0
-15.1791 17.9622 0.0
-14.0185 16.4617 0.0
-11.7401 18.4341 0.0
-9.27317 22.8598 0.0
49.4567 15.5058 0.0
44.8128 12.0032 0.0
45.1582 8.69403 0.0
45.5513 6.73647 0.0
50.852 11.3842 0.0
50.2559 14.2345 0.0
-42.1277 -3.30916 0.0
-38.1207 -3.79961 0.0
-37.3658 -2.14037 0.0
-38.9346 1.31663 0.0
-42.4458 3.14453 0.0
-1.42402 -4.14773 0.0
-1.27346 -4.06818 0.0
-5.26928 5.04963 0.0
-6.57716 4.93021 0.0
-7.4544 0.318929 0.0
29.8678 15.2271 0.0
30.3778 13.4324 0.0
33.3723 11.9233 0.0
33.5508 17.9138 0.0
33.2341 19.7115 0.0
32.5688 19.8792 0.0
29.5978 17.0349 0.0
55.4418 19.1644 0.0
56.6867 19.142 0.0
56.8195 20.6718 0.0
56.14 24.3776 0.0
54.2655 25.9168 0.0
53.4575 25.9728 0.0
52.209 25.4658 0.0
50.8751 23.9026 0.0
-22.7735 8.03878 0.0
-22.8375 6.00739 0.0
-18.2195 1.37566 0.0
-16.6965 3.14409 0.0
-16.7257 3.83056 0.0
-22.0403 8.59823 0.0
-20.3942 -30.8328 0.0
-20.5197 -28.4651 0.0
-25.0625 -29.6039 0.0
-25.463 -31.2677 0.0
-24.4829 -33.5956 0.0
-22.9974 -33.805 0.0
-28.5447 47.567 0.0
-28.9135 44.7742 0.0
-27.6554 43.6532 0.0
-23.9166 43.1128 0.0
-22.2023 44.8526 0.0
-22.9568 48.5479 0.0
53.4163 -5.79179 0.0
54.6803 -5.28443 0.0
58.4598 -3.23651 0.0
56.8039 0.631312 0.0
51.7799 -4.32927 0.0
-52.5007 -16.6784 0.0
-59.3737 -15.9656 0.0
-59.3542 -17.7575 0.0
-54.569 -21.2684 0.0
-52.6669 -21.2988 0.0
-52.4804 -17.989 0.0
11.2694 32.0024 0.0
11.6513 32.0243 0.0
15.918 37.8954 0.0
14.2921 37.7201 0.0
11.0056 37.0472 0.0
9.63776 33.8091 0.0
-40.9045 47.0794 0.0
-39.6398 42.8982 0.0
-38.7263 41.682 0.0
-35.315 44.8148 0.0
-35.8889 46.3658 0.0
-40.4845 48.3041 0.0
-21.6379 -43.1284 0.0
-21.4413 -43.1675 0.0
-22.6492 -35.0213 0.0
-23.0731 -34.4795 0.0
-24.5587 -34.2701 0.0
-26.2527 -35.6728 0.0
-26.2213 -36.7561 0.0
-26.2032 -36.9233 0.0
50.9746 14.2797 0.0
51.5707 11.4294 0.0
[...]
<CellData Scalars="cell variable 4" Vectors="cell vector">
<DataArray type="Float64" NumberOfComponents="3" Name="cell vector" format="ascii">
0 0 0
0 0 0
0 0 0
0 0 0
0 0 0
0 0 0
0 0 0
0 0 0
0 0 0
0 0 0
0 0 0
0 0 0
0 0 0
0 0 0
0 0 0
0 0 0
0 0 0
0 0 0
0 0 0
0 0 0
0 0 0
0 0 0
0 0 0
0 0 0
0 0 0
0 0 0
0 0 0
0 0 0
0 0 0
0 0 0
0 0 0
0 0 0
0 0 0
0 0 0
0 0 0
0 0 0
0 0 0
0 0 0
0 0 0
0 0 0
0 0 0
0 0 0
0 0 0
0 0 0
0 0 0
0 0 0
0 0 0
0 0 0
0 0 0
0 0 0
0 0 0
0 0 0
0 0 0
0 0 0
0 0 0
0 0 0
0 0 0
0 0 0
0 0 0
0 0 0
0 0 0
0 0 0
0 0 0
0 0 0
0 0 0
0 0 0
0 0 0
0 0 0
0 0 0
0 0 0
0 0 0
0 0 0
0 0 0
0 0 0
0 0 0
0 0 0
0 0 0
0 0 0
0 0 0
0 0 0
0 0 0
0 0 0
0 0 0
0 0 0
0 0 0
0 0 0
0 0 0
0 0 0
0 0 0
0 0 0
0 0 0
0 0 0
0 0 0
0 0 0
0 0 0
0 0 0
0 0 0
0 0 0
0 0 0
0 0 0
0 0 0
0 0 0
0 0 0
0 0 0
0 0 0
0 0 0
0 0 0
0 0 0
0 0 0
0 0 0
0 0 0
0 0 0
0 0 0
0 0 0
0 0 0
0 0 0
0 0 0
0 0 0
0 0 0
0 0 0
0 0 0
0 0 0
0 0 0
0 0 0
0 0 0
0 0 0
0 0 0
0 0 0
0 0 0
0 0 0
0 0 0
0 0 0
0 0 0
0 0 0
0 0 0
0 0 0
0 0 0
0 0 0
0 0 0
0 0 0
0 0 0
0 0 0
0 0 0
0 0 0
0 0 0
0 0 0
0 0 0
0 0 0
0 0 0
0 0 0
0 0 0
0 0 0
0 0 0
0 0 0
0 0 0
0 0 0
0 0 0
0 0 0
0 0 0
0 0 0
0 0 0
0 0 0
0 0 0
0 0 0
0 0 0
0 0 0
0 0 0
0 0 0
0 0 0
0 0 0
0 0 0
0 0 0
0 0 0
0 0 0
0 0 0
0 0 0
0 0 0
0 0 0
0 0 0
0 0 0
0 0 0
0 0 0
0 0 0
0 0 0
0 0 0
0 0 0
0 0 0
0 0 0
0 0 0
0 0 0
0 0 0
0 0 0
0 0 0
0 0 0
0 0 0
0 0 0
0 0 0
0 0 0
0 0 0
0 0 0
0 0 0
0 0 0
0 0 0
0 0 0
0 0 0
0 0 0
0 0 0
0 0 0
0 0 0
0 0 0
0 0 0
0 0 0
0 0 0
0 0 0
0 0 0
0 0 0
0 0 0
0 0 0
0 0 0
0 0 0
0 0 0
0 0 0
0 0 0
0 0 0
0 0 0
0 0 0
0 0 0
0 0 0
0 0 0
0 0 0
0 0 0
0 0 0
0 0 0
0 0 0
0 0 0
0 0 0
0 0 0
0 0 0
0 0 0
0 0 0
0 0 0
0 0 0
0 0 0
0 0 0
0 0 0
0 0 0
0 0 0
0 0 0
0 0 0
0 0 0
0 0 0
0 0 0
0 0 0
0 0 0
0 0 0
0 0 0
0 0 0
0 0 0
0 0 0
0 0 0
0 0 0
0 0 0
0 0 0
0 0 0
0 0 0
0 0 0
0 0 0
0 0 0
0 0 0
0 0 0
0 0 0
0 0 0
0 0 0
0 0 0
0 0 0
0 0 0
0 0 0
0 0 0
0 0 0
0 0 0
0 0 0
0 0 0
0 0 0
0 0 0
0 0 0
0 0 0
0 0 0
0 0 0
0 0 0
0 0 0
0 0 0
0 0 0
0 0 0
0 0 0
0 0 0
0 0 0
0 0 0
0 0 0
0 0 0
0 0 0
0 0 0
0 0 0
0 0 0
0 0 0
0 0 0
0 0 0
0 0 0
0 0 0
0 0 0
0 0 0
0 0 0
0 0 0
0 0 0
0 0 0
0 0 0
0 0 0
0 0 0
0 0 0
0 0 0
0 0 0
0 0 0
0 0 0
0 0 0
0 0 0
0 0 0
0 0 0
0 0 0
0 0 0
0 0 0
0 0 0
0 0 0
0 0 0
0 0 0
0 0 0
0 0 0
0 0 0
0 0 0
0 0 0
0 0 0
0 0 0
0 0 0
0 0 0
0 0 0
0 0 0
0 0 0
0 0 0
0 0 0
0 0 0
0 0 0
0 0 0
0 0 0
0 0 0
0 0 0
0 0 0
0 0 0
0 0 0
0 0 0
0 0 0
0 0 0
0 0 0
0 0 0
0 0 0
0 0 0
0 0 0
0 0 0
0 0 0
0 0 0
0 0 0
0 0 0
0 0 0
0 0 0
0 0 0
0 0 0
0 0 0
0 0 0
0 0 0
0 0 0
0 0 0
0 0 0
0 0 0
0 0 0
0 0 0
0 0 0
0 0 0
0 0 0
0 0 0
0 0 0
0 0 0
0 0 0
0 0 0
0 0 0
0 0 0
0 0 0
0 0 0
0 0 0
0 0 0
0 0 0
0 0 0
0 0 0
0 0 0
0 0 0
0 0 0
0 0 0
0 0 0
0 0 0
0 0 0
0 0 0
0 0 0
0 0 0
0 0 0
0 0 0
0 0 0
0 0 0
0 0 0
0 0 0
0 0 0
0 0 0
</DataArray>
<DataArray type="Float64" Name="cell vector length" format="ascii">
0 0 0 0 0 0 0 0 0 0 0 0 0 0 0 0 0 0 0 0 0 0 0 0 0 0 0 0 0 0 0 0 0 0 0 0 0 0 0 0 0 0 0 0 0 0 0 0 0 0 0 0 0 0 0 0 0 0 0 0 0 0 0 0 0 0 0 0 0 0 0 0 0 0 0 0 0 0 0 0 0 0 0 0 0 0 0 0 0 0 0 0 0 0 0 0 0 0 0 0 0 0 0 0 0 0 0 0 0 0 0 0 0 0 0 0 0 0 0 0 0 0 0 0 0 0 0 0 0 0 0 0 0 0 0 0 0 0 0 0 0 0 0 0 0 0 0 0 0 0 0 0 0 0 0 0 0 0 0 0 0 0 0 0 0 0 0 0 0 0 0 0 0 0 0 0 0 0 0 0 0 0 0 0 0 0 0 0 0 0 0 0 0 0 0 0 0 0 0 0 0 0 0 0 0 0 0 0 0 0 0 0 0 0 0 0 0 0 0 0 0 0 0 0 0 0 0 0 0 0 0 0 0 0 0 0 0 0 0 0 0 0 0 0 0 0 0 0 0 0 0 0 0 0 0 0 0 0 0 0 0 0 0 0 0 0 0 0 0 0 0 0 0 0 0 0 0 0 0 0 0 0 0 0 0 0 0 0 0 0 0 0 0 0 0 0 0 0 0 0 0 0 0 0 0 0 0 0 0 0 0 0 0 0 0 0 0 0 0 0 0 0 0 0 0 0 0 0 0 0 0 0 0 0 0 0 0 0 0 0 0 0 0 0 0 0 0 0 0 0 0 0 0 0 0 0 0 0 0 0 0 0 0 0 0 0 0 0 0 0 0 0 0 0 0 0 0 0 0 0 0 0 0 0 0 0 0 0 0 0 0 0 0 0 0 0 0 0 0 0 0 0 0 0 0 0 0 0 0 0 0 0 0 0 0 0 0 
</DataArray>
<DataArray type="Float64" Name="cell variable 4" format="ascii">
0.514292 0.434405 0.657465 1.07467 0.631062 0.94865 0.542818 0.94865 0.736473 0.399988 1.14226 1.04461 0.790107 1.04461 0.573608 0.66381 0.573608 0.495708 0.573608 0.573608 0.542818 0.99432 0.511974 1.00681 0.673042 0.495708 0.789941 0.503886 0.495708 0.437452 0.789941 0.626025 0.980966 0.626025 0.393381 0.495708 0.36504 0.631062 0.673042 0.626025 0.66381 0.343308 0.848855 0.919422 0.626025 1.10185 1.11547 0.848855 0.514292 0.657465 0.848855 0.8063 0.503886 0.789941 0.673042 0.442722 1.06245 0.736473 1.11547 0.912892 0.573608 0.708918 1.04461 1.07467 0.736473 0.542818 1.12037 0.848855 0.50937 1.00681 0.631062 0.503886 0.45141 0.542818 0.626025 0.371127 0.66381 0.50937 0.45141 1.11547 0.442722 0.708918 0.495708 0.790107 0.36504 0.912892 1.04461 1.10185 1.14226 0.66381 0.673042 0.708918 0.36504 0.626025 0.980966 0.980966 0.763876 0.919422 0.503886 1.11547 0.503886 1.04461 0.919422 0.495708 0.631062 0.919422 0.479217 0.542818 0.434405 0.912892 0.542818 0.790107 0.763876 0.673042 0.479217 0.673042 0.542818 0.657465 1.11547 0.789941 0.657465 0.511974 1.00681 0.343308 0.393381 0.673042 0.32239 0.573608 0.99432 0.790107 0.514292 0.763876 0.789941 0.393381 0.66381 1.06245 0.50937 0.789941 1.04461 0.789941 0.790107 1.00681 1.12037 0.763876 0.542818 0.980966 0.66381 0.99432 0.980966 0.848855 0.495708 0.980966 0.434405 0.919422 1.00681 0.332003 0.912892 0.790107 0.542818 1.06245 1.07467 0.94865 0.848855 1.06245 0.511974 0.763876 0.657465 0.434405 1.11547 1.10185 0.573608 0.919422 0.573608 0.626025 0.848855 0.673042 1.00681 1.00681 0.343308 0.371127 1.12037 1.00681 1.00681 0.657465 0.442722 0.437452 0.657465 1.11547 0.313432 0.848855 0.542818 0.912892 1.07467 0.399988 0.980966 0.789941 0.94865 0.763876 0.8063 0.919422 0.790107 0.90618 0.736473 0.657465 0.631062 0.912892 0.45141 0.708918 0.763876 0.442722 0.514292 0.673042 0.631062 0.495708 0.657465 0.36504 0.980966 0.673042 0.573608 1.07467 1.04461 0.316217 0.434405 1.10185 0.343308 0.8063 0.511974 0.332003 0.437452 0.763876 1.07467 0.90618 0.848855 1.10185 1.04461 0.919422 1.10185 0.479217 0.45141 0.631062 0.99432 0.94865 0.442722 1.11547 0.919422 0.399988 0.90618 0.736473 0.36504 1.07467 1.10185 0.573608 0.626025 1.14226 0.316217 0.763876 1.10185 0.45141 0.434405 0.437452 1.11547 0.514292 1.06245 0.45141 0.36504 0.631062 1.14226 0.912892 0.437452 0.919422 1.11547 0.789941 0.631062 0.542818 0.503886 0.631062 0.94865 0.631062 0.94865 0.371127 0.736473 0.736473 0.8063 0.912892 0.789941 0.631062 0.573608 0.626025 0.50937 1.00681 0.912892 1.14226 0.94865 0.371127 0.442722 0.8063 0.66381 1.12037 0.66381 0.673042 0.912892 0.790107 1.12037 1.06245 0.912892 0.848855 0.33356 0.66381 0.434405 0.90618 0.631062 0.542818 1.12037 1.07467 0.912892 0.399988 1.10185 1.11547 0.980966 0.8063 0.631062 0.789941 0.511974 0.399988 0.332003 0.316217 0.542818 1.14226 0.573608 0.33356 1.04461 0.66381 0.708918 0.708918 0.626025 0.479217 0.90618 0.495708 0.36504 0.514292 0.542818 0.631062 1.00681 0.393381 0.99432 1.06245 0.8063 0.848855 0.99432 0.434405 0.657465 0.573608 0.919422 0.442722 0.399988 0.789941 0.514292 0.8063 0.495708 1.14226 1.12037 0.343308 0.657465 0.919422 0.919422 0.763876 0.848855 0.313432 0.789941 1.11547 0.980966 0.631062 0.434405 1.10185 0.90618 0.790107 1.12037 0.542818 0.673042 0.626025 0.66381 0.511974 1.06245 0.514292 0.542818 0.919422 0.626025 0.90618 1.14226 0.631062 0.626025 1.04461 0.90618 0.371127 0.657465 0.919422 0.66381 0.511974 1.06245 0.399988 1.07467 1.11547 0.673042 0.790107 0.542818 1.14226 0.919422 0.790107 0.657465 0.657465 0.66381 0.437452 0.980966 0.657465 0.399988 0.94865 0.790107 
</DataArray>
<DataArray type="Float64" Name="cell variable 5" format="ascii">
0.0364304 0.0503251 0.0226112 0.00858434 0.0244954 0.0109898 0.0328244 0.0109898 0.0181031 0.0588268 0.00760594 0.00908091 0.0157662 0.00908091 0.0294962 0.0221905 0.0294962 0.0391044 0.0294962 0.0294962 0.0328244 0.0100133 0.0367488 0.00976872 0.021599 0.0391044 0.0157727 0.037893 0.0391044 0.0496613 0.0157727 0.0248813 0.0102849 0.0248813 0.0606986 0.0391044 0.0698059 0.0244954 0.021599 0.0248813 0.0221905 0.0782104 0.0136882 0.0116913 0.0248813 0.00816951 0.00797274 0.0136882 0.0364304 0.0226112 0.0136882 0.0151488 0.037893 0.0157727 0.021599 0.0485429 0.00878122 0.0181031 0.00797274 0.0118572 0.0294962 0.0195097 0.00908091 0.00858434 0.0181031 0.0328244 0.00790366 0.0136882 0.0371116 0.00976872 0.0244954 0.037893 0.0467791 0.0328244 0.0248813 0.0676886 0.0221905 0.0371116 0.0467791 0.00797274 0.0485429 0.0195097 0.0391044 0.0157662 0.0698059 0.0118572 0.00908091 0.00816951 0.00760594 0.0221905 0.021599 0.0195097 0.0698059 0.0248813 0.0102849 0.0102849 0.016849 0.0116913 0.037893 0.00797274 0.037893 0.00908091 0.0116913 0.0391044 0.0244954 0.0116913 0.0417277 0.0328244 0.0503251 0.0118572 0.0328244 0.0157662 0.016849 0.021599 0.0417277 0.021599 0.0328244 0.0226112 0.00797274 0.0157727 0.0226112 0.0367488 0.00976872 0.0782104 0.0606986 0.021599 0.0877689 0.0294962 0.0100133 0.0157662 0.0364304 0.016849 0.0157727 0.0606986 0.0221905 0.00878122 0.0371116 0.0157727 0.00908091 0.0157727 0.0157662 0.00976872 0.00790366 0.016849 0.0328244 0.0102849 0.0221905 0.0100133 0.0102849 0.0136882 0.0391044 0.0102849 0.0503251 0.0116913 0.00976872 0.0831765 0.0118572 0.0157662 0.0328244 0.00878122 0.00858434 0.0109898 0.0136882 0.00878122 0.0367488 0.016849 0.0226112 0.0503251 0.00797274 0.00816951 0.0294962 0.0116913 0.0294962 0.0248813 0.0136882 0.021599 0.00976872 0.00976872 0.0782104 0.0676886 0.00790366 0.00976872 0.00976872 0.0226112 0.0485429 0.0496613 0.0226112 0.00797274 0.0923878 0.0136882 0.0328244 0.0118572 0.00858434 0.0588268 0.0102849 0.0157727 0.0109898 0.016849 0.0151488 0.0116913 0.0157662 0.0120314 0.0181031 0.0226112 0.0244954 0.0118572 0.0467791 0.0195097 0.016849 0.0485429 0.0364304 0.021599 0.0244954 0.0391044 0.0226112 0.0698059 0.0102849 0.021599 0.0294962 0.00858434 0.00908091 0.0909148 0.0503251 0.00816951 0.0782104 0.0151488 0.0367488 0.0831765 0.0496613 0.016849 0.00858434 0.0120314 0.0136882 0.00816951 0.00908091 0.0116913 0.00816951 0.0417277 0.0467791 0.0244954 0.0100133 0.0109898 0.0485429 0.00797274 0.0116913 0.0588268 0.0120314 0.0181031 0.0698059 0.00858434 0.00816951 0.0294962 0.0248813 0.00760594 0.0909148 0.016849 0.00816951 0.0467791 0.0503251 0.0496613 0.00797274 0.0364304 0.00878122 0.0467791 0.0698059 0.0244954 0.00760594 0.0118572 0.0496613 0.0116913 0.00797274 0.0157727 0.0244954 0.0328244 0.037893 0.0244954 0.0109898 0.0244954 0.0109898 0.0676886 0.0181031 0.0181031 0.0151488 0.0118572 0.0157727 0.0244954 0.0294962 0.0248813 0.0371116 0.00976872 0.0118572 0.00760594 0.0109898 0.0676886 0.0485429 0.0151488 0.0221905 0.00790366 0.0221905 0.021599 0.0118572 0.0157662 0.00790366 0.00878122 0.0118572 0.0136882 0.0824658 0.0221905 0.0503251 0.0120314 0.0244954 0.0328244 0.00790366 0.00858434 0.0118572 0.0588268 0.00816951 0.00797274 0.0102849 0.0151488 0.0244954 0.0157727 0.0367488 0.0588268 0.0831765 0.0909148 0.0328244 0.00760594 0.0294962 0.0824658 0.00908091 0.0221905 0.0195097 0.0195097 0.0248813 0.0417277 0.0120314 0.0391044 0.0698059 0.0364304 0.0328244 0.0244954 0.00976872 0.0606986 0.0100133 0.00878122 0.0151488 0.0136882 0.0100133 0.0503251 0.0226112 0.0294962 0.0116913 0.0485429 0.0588268 0.0157727 0.0364304 0.0151488 0.0391044 0.00760594 0.00790366 0.0782104 0.0226112 0.0116913 0.0116913 0.016849 0.0136882 0.0923878 0.0157727 0.00797274 0.0102849 0.0244954 0.0503251 0.00816951 0.0120314 0.0157662 0.00790366 0.0328244 0.021599 0.0248813 0.0221905 0.0367488 0.00878122 0.0364304 0.0328244 0.0116913 0.0248813 0.0120314 0.00760594 0.0244954 0.0248813 0.00908091 0.0120314 0.0676886 0.0226112 0.0116913 0.0221905 0.0367488 0.00878122 0.0588268 0.00858434 0.00797274 0.021599 0.0157662 0.0328244 0.00760594 0.0116913 0.0157662 0.0226112 0.0226112 0.0221905 0.0496613 0.0102849 0.0226112 0.0588268 0.0109898 0.0157662 
</DataArray>
<DataArray type="Float64" Name="cell variable 6" format="ascii">
0.000349016 0.000857904 8.84138e-05 5.3719e-06 0.000110922 1.10661e-05 0.000251962 1.10661e-05 4.69278e-05 0.00127682 3.76475e-06 6.33494e-06 3.15261e-05 6.33494e-06 0.000187165 8.3838e-05 0.000187165 0.000410215 0.000187165 0.000187165 0.000251962 8.43313e-06 0.00035504 7.8448e-06 7.76673e-05 0.000410215 3.156e-05 0.000380196 0.000410215 0.000885689 3.156e-05 0.000115922 9.11938e-06 0.000115922 0.00151522 0.000410215 0.0019794 0.000110922 7.76673e-05 0.000115922 8.3838e-05 0.00310284 2.09522e-05 1.32528e-05 0.000115922 4.64493e-06 4.32387e-06 2.09522e-05 0.000349016 8.84138e-05 2.09522e-05 2.80904e-05 0.000380196 3.156e-05 7.76673e-05 0.000858618 5.74138e-06 4.69278e-05 4.32387e-06 1.38076e-05 0.000187165 5.81379e-05 6.33494e-06 5.3719e-06 4.69278e-05 0.000251962 4.21468e-06 2.09522e-05 0.000394946 7.8448e-06 0.000110922 0.000380196 0.000696942 0.000251962 0.000115922 0.0019189 8.3838e-05 0.000394946 0.000696942 4.32387e-06 0.000858618 5.81379e-05 0.000410215 3.15261e-05 0.0019794 1.38076e-05 6.33494e-06 4.64493e-06 3.76475e-06 8.3838e-05 7.76673e-05 5.81379e-05 0.0019794 0.000115922 9.11938e-06 9.11938e-06 3.81646e-05 1.32528e-05 0.000380196 4.32387e-06 0.000380196 6.33494e-06 1.32528e-05 0.000410215 0.000110922 1.32528e-05 0.00051123 0.000251962 0.000857904 1.38076e-05 0.000251962 3.15261e-05 3.81646e-05 7.76673e-05 0.00051123 7.76673e-05 0.000251962 8.84138e-05 4.32387e-06 3.156e-05 8.84138e-05 0.00035504 7.8448e-06 0.00310284 0.00151522 7.76673e-05 0.00628005 0.000187165 8.43313e-06 3.15261e-05 0.000349016 3.81646e-05 3.156e-05 0.00151522 8.3838e-05 5.74138e-06 0.000394946 3.156e-05 6.33494e-06 3.156e-05 3.15261e-05 7.8448e-06 4.21468e-06 3.81646e-05 0.000251962 9.11938e-06 8.3838e-05 8.43313e-06 9.11938e-06 2.09522e-05 0.000410215 9.11938e-06 0.000857904 1.32528e-05 7.8448e-06 0.00364689 1.38076e-05 3.15261e-05 0.000251962 5.74138e-06 5.3719e-06 1.10661e-05 2.09522e-05 5.74138e-06 0.00035504 3.81646e-05 8.84138e-05 0.000857904 4.32387e-06 4.64493e-06 0.000187165 1.32528e-05 0.000187165 0.000115922 2.09522e-05 7.76673e-05 7.8448e-06 7.8448e-06 0.00310284 0.0019189 4.21468e-06 7.8448e-06 7.8448e-06 8.84138e-05 0.000858618 0.000885689 8.84138e-05 4.32387e-06 0.00439847 2.09522e-05 0.000251962 1.38076e-05 5.3719e-06 0.00127682 9.11938e-06 3.156e-05 1.10661e-05 3.81646e-05 2.80904e-05 1.32528e-05 3.15261e-05 1.4406e-05 4.69278e-05 8.84138e-05 0.000110922 1.38076e-05 0.000696942 5.81379e-05 3.81646e-05 0.000858618 0.000349016 7.76673e-05 0.000110922 0.000410215 8.84138e-05 0.0019794 9.11938e-06 7.76673e-05 0.000187165 5.3719e-06 6.33494e-06 0.0038835 0.000857904 4.64493e-06 0.00310284 2.80904e-05 0.00035504 0.00364689 0.000885689 3.81646e-05 5.3719e-06 1.4406e-05 2.09522e-05 4.64493e-06 6.33494e-06 1.32528e-05 4.64493e-06 0.00051123 0.000696942 0.000110922 8.43313e-06 1.10661e-05 0.000858618 4.32387e-06 1.32528e-05 0.00127682 1.4406e-05 4.69278e-05 0.0019794 5.3719e-06 4.64493e-06 0.000187165 0.000115922 3.76475e-06 0.0038835 3.81646e-05 4.64493e-06 0.000696942 0.000857904 0.000885689 4.32387e-06 0.000349016 5.74138e-06 0.000696942 0.0019794 0.000110922 3.76475e-06 1.38076e-05 0.000885689 1.32528e-05 4.32387e-06 3.156e-05 0.000110922 0.000251962 0.000380196 0.000110922 1.10661e-05 0.000110922 1.10661e-05 0.0019189 4.69278e-05 4.69278e-05 2.80904e-05 1.38076e-05 3.156e-05 0.000110922 0.000187165 0.000115922 0.000394946 7.8448e-06 1.38076e-05 3.76475e-06 1.10661e-05 0.0019189 0.000858618 2.80904e-05 8.3838e-05 4.21468e-06 8.3838e-05 7.76673e-05 1.38076e-05 3.15261e-05 4.21468e-06 5.74138e-06 1.38076e-05 2.09522e-05 0.00403961 8.3838e-05 0.000857904 1.4406e-05 0.000110922 0.000251962 4.21468e-06 5.3719e-06 1.38076e-05 0.00127682 4.64493e-06 4.32387e-06 9.11938e-06 2.80904e-05 0.000110922 3.156e-05 0.00035504 0.00127682 0.00364689 0.0038835 0.000251962 3.76475e-06 0.000187165 0.00403961 6.33494e-06 8.3838e-05 5.81379e-05 5.81379e-05 0.000115922 0.00051123 1.4406e-05 0.000410215 0.0019794 0.000349016 0.000251962 0.000110922 7.8448e-06 0.00151522 8.43313e-06 5.74138e-06 2.80904e-05 2.09522e-05 8.43313e-06 0.000857904 8.84138e-05 0.000187165 1.32528e-05 0.000858618 0.00127682 3.156e-05 0.000349016 2.80904e-05 0.000410215 3.76475e-06 4.21468e-06 0.00310284 8.84138e-05 1.32528e-05 1.32528e-05 3.81646e-05 2.09522e-05 0.00439847 3.156e-05 4.32387e-06 9.11938e-06 0.000110922 0.000857904 4.64493e-06 1.4406e-05 3.15261e-05 4.21468e-06 0.000251962 7.76673e-05 0.000115922 8.3838e-05 0.00035504 5.74138e-06 0.000349016 0.000251962 1.32528e-05 0.000115922 1.4406e-05 3.76475e-06 0.000110922 0.000115922 6.33494e-06 1.4406e-05 0.0019189 8.84138e-05 1.32528e-05 8.3838e-05 0.00035504 5.74138e-06 0.00127682 5.3719e-06 4.32387e-06 7.76673e-05 3.15261e-05 0.000251962 3.76475e-06 1.32528e-05 3.15261e-05 8.84138e-05 8.84138e-05 8.3838e-05 0.000885689 9.11938e-06 8.84138e-05 0.00127682 1.10661e-05 3.15261e-05 
</DataArray>
<DataArray type="Float64" Name="cell variable 7" format="ascii">