<VTKFile type="UnstructuredGrid" version="0.1">
<UnstructuredGrid>
<Piece  NumberOfPoints="    2467" NumberOfCells="     412">
<Points>
<DataArray type="Float64" NumberOfComponents="3" format="ascii">
36.0844 -33.525 0.0
35.3938 -34.5473 0.0
40.4237 -38.8534 0.0
42.3636 -37.3637 0.0
42.3946 -31.4104 0.0
39.996 -32.0515 0.0
25.3021 39.0707 0.0
24.1116 39.0335 0.0
23.4951 36.5844 0.0
23.4686 33.2755 0.0
24.0625 32.785 0.0
28.1474 32.744 0.0
28.5179 33.9289 0.0
30.911 -22.9539 0.0
30.4633 -19.0567 0.0
24.0563 -21.6863 0.0
23.2134 -23.3979 0.0
24.0868 -24.4748 0.0
-2.08517 19.7136 0.0
-6.32815 16.4803 0.0
-5.62219 13.493 0.0
-1.10918 16.4476 0.0
0.00451508 17.5332 0.0
62.0101 -8.6377 0.0
62.0225 -8.11188 0.0
55.5895 -6.40169 0.0
54.7042 -7.44333 0.0
56.3478 -10.8278 0.0
61.1389 -10.1447 0.0
14.0716 -22.0193 0.0
12.0678 -20.7249 0.0
8.41292 -21.5318 0.0
5.06703 -22.4227 0.0
4.65495 -23.206 0.0
7.00937 -25.2071 0.0
-39.7998 -9.20958 0.0
-37.0705 -11.978 0.0
-36.4742 -12.2788 0.0
-35.3299 -11.9521 0.0
-36.7263 -5.06297 0.0
14.8294 -21.6034 0.0
16.5616 -18.8735 0.0
14.1698 -14.1455 0.0
10.4019 -14.8978 0.0
12.5274 -20.2099 0.0
14.5311 -21.5044 0.0
-36.4533 33.2772 0.0
-34.1361 39.5441 0.0
-34.0869 40.746 0.0
-34.4492 42.2169 0.0
-36.0157 42.3579 0.0
-37.2838 41.175 0.0
-38.1974 38.7954 0.0
18.8955 -41.9441 0.0
14.8826 -41.4109 0.0
14.1786 -41.8499 0.0
13.5749 -45.0949 0.0
15.2725 -46.623 0.0
15.6272 -46.6207 0.0
18.7318 -46.29 0.0
2.8585 16.9537 0.0
2.65501 16.3417 0.0
6.90966 12.0128 0.0
8.07901 12.1036 0.0
8.91324 12.1637 0.0
8.63957 16.1261 0.0
7.89664 16.4921 0.0
-44.9145 -17.6082 0.0
-49.6339 -15.0673 0.0
-51.1275 -16.7145 0.0
-51.2306 -19.9989 0.0
-50.1065 -23.1888 0.0
-49.9303 -23.2755 0.0
21.9027 24.9014 0.0
22.0975 25.4776 0.0
18.7857 33.0761 0.0
16.7135 33.3337 0.0
16.0902 31.7943 0.0
15.9799 30.8855 0.0
-12.3594 -10.7651 0.0
-13.1082 -13.5688 0.0
-11.9294 -14.1894 0.0
-7.89616 -15.7523 0.0
-6.91988 -14.8647 0.0
-6.49468 -14.278 0.0
-7.25039 -11.9354 0.0
40.0856 -3.32537 0.0
36.5788 -2.83211 0.0
35.2983 -8.65067 0.0
37.6577 -8.07172 0.0
40.5313 -3.79299 0.0
-15.969 -36.4241 0.0
-17.2843 -36.2284 0.0
-21.3928 -37.5122 0.0
-20.9209 -40.8704 0.0
-17.9159 -43.1975 0.0
-17.6383 -43.1976 0.0
-22.0888 55.7972 0.0
-23.2081 55.6757 0.0
-24.3737 49.6471 0.0
-22.7499 48.9805 0.0
-22.241 49.0193 0.0
-19.3052 49.338 0.0
-18.5693 53.1758 0.0
-20.4912 55.5507 0.0
-44.4831 20.1071 0.0
-47.0178 19.7324 0.0
-47.2568 19.3011 0.0
-48.3486 15.1886 0.0
-45.5221 12.8902 0.0
-43.6389 13.6132 0.0
43.7687 -6.91025 0.0
42.9891 -5.11516 0.0
41.683 -4.01061 0.0
40.8156 -4.00097 0.0
37.942 -8.2797 0.0
37.6929 -10.5012 0.0
37.5887 -12.0307 0.0
37.0115 -10.8387 0.0
37.2606 -8.61723 0.0
34.9012 -9.19618 0.0
30.8437 -10.204 0.0
30.5827 -11.3019 0.0
30.6678 -13.607 0.0
-36.8255 -2.91028 0.0
-34.7387 -2.95543 0.0
-34.8186 3.02787 0.0
-36.7318 4.55641 0.0
-37.2671 3.97188 0.0
-37.6584 -2.27132 0.0
-15.9524 25.6914 0.0
-16.0904 25.8613 0.0
-19.0284 25.9476 0.0
-22.651 21.045 0.0
-23.3496 19.8159 0.0
-22.8799 17.1602 0.0
-20.8875 16.8083 0.0
30.5928 30.7286 0.0
33.4587 33.1765 0.0
31.7478 38.7344 0.0
29.0789 33.8107 0.0
28.7084 32.6258 0.0
42.6288 21.5345 0.0
44.3756 22.1696 0.0
44.9532 26.8532 0.0
44.8955 27.63 0.0
44.284 28.8017 0.0
41.4843 29.5918 0.0
40.5919 28.9443 0.0
40.0138 26.9861 0.0
47.6524 -36.4964 0.0
48.8295 -34.6454 0.0
50.4912 -30.3886 0.0
50.474 -29.7859 0.0
48.9397 -29.9584 0.0
44.9955 -30.3711 0.0
-43.212 20.3662 0.0
-44.0884 20.0823 0.0
-43.2442 13.5884 0.0
-40.5585 13.6347 0.0
-38.3565 13.9058 0.0
-49.2121 28.5956 0.0
-49.3014 28.5152 0.0
-44.3892 27.3284 0.0
-41.4589 30.7643 0.0
-41.8555 31.832 0.0
-44.8617 30.8413 0.0
-55.1148 16.1853 0.0
-57.0146 14.2006 0.0
-52.003 11.5946 0.0
-50.3301 13.1266 0.0
-49.7182 14.5345 0.0
-40.6079 13.1177 0.0
-43.2936 13.0713 0.0
-45.1767 12.3484 0.0
-44.2224 9.63753 0.0
-40.0398 8.51114 0.0
29.0259 -52.2642 0.0
33.0373 -48.7687 0.0
29.344 -46.8311 0.0
26.1484 -47.9465 0.0
26.5294 -51.5947 0.0
27.4843 -52.5996 0.0
-48.7705 0.782082 0.0
-49.9903 2.30566 0.0
-55.9983 4.55903 0.0
-56.8298 0.942073 0.0
-53.2864 -2.07953 0.0
6.55977 41.8576 0.0
3.71682 43.4988 0.0
1.93104 42.5492 0.0
-3.20777 36.477 0.0
-2.07774 35.9465 0.0
9.39356 25.7862 0.0
8.86223 24.8501 0.0
8.29574 17.189 0.0
9.03867 16.8231 0.0
9.57238 17.0906 0.0
12.2009 20.2929 0.0
12.506 20.6396 0.0
12.8562 23.7737 0.0
11.6084 25.619 0.0
9.26401 40.7754 0.0
6.76352 41.6541 0.0
-1.87399 35.743 0.0
-0.209266 34.3947 0.0
1.47941 34.9237 0.0
8.16308 39.3536 0.0
-37.6154 -37.2072 0.0
-37.7431 -37.7007 0.0
-35.9753 -39.567 0.0
-33.6406 -40.9946 0.0
-32.0441 -35.6438 0.0
54.0949 5.70196 0.0
54.346 5.60382 0.0
62.7861 6.91837 0.0
62.5693 8.21969 0.0
54.1622 8.37594 0.0
53.746 7.94506 0.0
-4.82037 36.4786 0.0
-3.6511 36.4846 0.0
1.48772 42.5567 0.0
-5.02782 42.2686 0.0
-59.2648 20.0694 0.0
-59.4065 19.9593 0.0
-58.4644 13.5366 0.0
-57.4334 14.5333 0.0
-55.5336 16.518 0.0
-55.1215 18.5649 0.0
-55.1303 19.0962 0.0
-24.0906 28.3603 0.0
-24.8178 28.5908 0.0
-27.414 28.1215 0.0
-27.0867 23.7585 0.0
-24.3221 20.379 0.0
-23.8658 20.1422 0.0
-23.1672 21.3713 0.0
52.3368 -26.4683 0.0
53.5378 -25.1365 0.0
53.7285 -24.7352 0.0
53.956 -20.7917 0.0
48.2002 -22.3164 0.0
44.8972 -24.3094 0.0
-22.6889 -49.2687 0.0
-21.7623 -49.1006 0.0
-18.1269 -43.7784 0.0
-21.1319 -41.4513 0.0
-21.6077 -41.7223 0.0
-54.8229 19.7022 0.0
-50.8976 24.8318 0.0
-51.0366 27.1921 0.0
-52.3646 27.8124 0.0
-56.8185 23.2502 0.0
-58.9575 20.6754 0.0
25.3428 -47.9514 0.0
21.4782 -50.0114 0.0
19.0641 -54.3058 0.0
25.9386 -51.7536 0.0
25.5577 -48.1054 0.0
-57.2855 13.941 0.0
-58.3165 12.9443 0.0
-59.0509 11.6682 0.0
-56.6191 9.20733 0.0
-53.2743 10.0532 0.0
-52.2739 11.335 0.0
8.45825 39.1529 0.0
1.77458 34.723 0.0
8.70776 34.1322 0.0
9.85133 34.9588 0.0
23.9668 2.2655 0.0
23.4346 2.65369 0.0
17.8368 -1.53108 0.0
17.9405 -4.12977 0.0
19.1443 -4.83168 0.0
22.0511 -3.04518 0.0
8.4848 -13.2388 0.0
9.37925 -13.4512 0.0
18.371 -6.72965 0.0
18.4062 -5.58637 0.0
17.2024 -4.88446 0.0
16.8225 -4.93447 0.0
16.274 -5.00624 0.0
9.47003 -10.2442 0.0
8.70962 -10.8128 0.0
30.8535 42.8205 0.0
23.6876 45.9039 0.0
23.3169 40.3689 0.0
24.2172 39.7318 0.0
25.4076 39.769 0.0
31.0072 40.7731 0.0
-6.88142 -38.0315 0.0
-7.5502 -38.4311 0.0
-5.97891 -44.8539 0.0
-4.24628 -43.4774 0.0
-1.56473 -40.7738 0.0
23.2358 -16.5778 0.0
20.8779 -15.0697 0.0
17.1199 -18.9944 0.0
15.3877 -21.7243 0.0
15.683 -22.2521 0.0
17.5647 -22.3643 0.0
31.3465 14.5515 0.0
33.0643 10.2005 0.0
37.9264 15.9681 0.0
-53.947 -3.52324 0.0
-53.7402 -2.33739 0.0
-57.2835 0.684213 0.0
-58.6375 0.693722 0.0
-61.5434 -0.388248 0.0
-62.1777 -1.5971 0.0
9.22023 -55.8717 0.0
7.18118 -52.3055 0.0
1.50954 -54.166 0.0
4.02881 -56.1109 0.0
8.01368 -56.695 0.0
8.46616 -56.6802 0.0
-17.6013 47.8819 0.0
-12.083 51.8717 0.0
-14.0731 54.9662 0.0
-14.4904 54.8484 0.0
-17.9961 53.1168 0.0
-18.732 49.279 0.0
-30.7931 29.7474 0.0
-33.0306 28.0738 0.0
-29.9465 22.8629 0.0
-27.5526 23.9385 0.0
-27.8798 28.3015 0.0
-29.0493 29.7064 0.0
-48.8819 15.2696 0.0
-47.7902 19.3821 0.0
-54.496 18.5586 0.0
-54.9081 16.5118 0.0
-49.5114 14.861 0.0
21.5484 22.3542 0.0
19.3954 19.0599 0.0
26.0056 17.5604 0.0
23.6313 21.9331 0.0
22.4635 22.6477 0.0
35.2196 1.35963 0.0
35.8352 0.333553 0.0
43.0208 5.59472 0.0
43.9727 7.30334 0.0
41.7303 9.20886 0.0
37.3778 4.59608 0.0
12.0948 -3.29292 0.0
9.72372 -2.35764 0.0
7.15709 -7.39716 0.0
8.32037 -10.5298 0.0
9.08078 -9.96123 0.0
22.5008 -2.91586 0.0
24.5461 -3.85211 0.0
28.3306 2.36539 0.0
27.541 2.83945 0.0
25.7777 2.83868 0.0
24.4165 2.39482 0.0
36.9484 -12.6664 0.0
37.0526 -11.1368 0.0
30.7088 -13.9051 0.0
30.6773 -15.0515 0.0
31.5843 -15.9027 0.0
35.662 -15.3028 0.0
36.4541 -14.3784 0.0
-33.5587 -41.6015 0.0
-35.8934 -40.1739 0.0
-36.1937 -44.6289 0.0
-31.9719 -48.1346 0.0
-31.1565 -45.0776 0.0
-6.334 -15.471 0.0
-7.31027 -16.3586 0.0
-7.15926 -17.2246 0.0
-2.47088 -22.8922 0.0
-1.65181 -23.3737 0.0
-0.968649 -19.8002 0.0
-5.28726 22.5565 0.0
-8.02284 22.3293 0.0
-12.5761 14.5718 0.0
-11.7837 13.2018 0.0
-9.83532 14.7643 0.0
40.2546 12.9554 0.0
36.4522 9.9547 0.0
37.2883 5.02487 0.0
41.6408 9.63766 0.0
40.7975 11.8887 0.0
-34.4108 -3.07807 0.0
-31.0628 -3.22558 0.0
-30.5858 -2.01919 0.0
-31.7456 0.748329 0.0
-34.4908 2.90522 0.0
-5.71262 4.19428 0.0
-6.27922 0.524868 0.0
-0.968974 -3.47562 0.0
-0.646974 -3.30714 0.0
0.323537 -0.577632 0.0
-1.92085 3.6709 0.0
-3.43949 4.65852 0.0
26.679 16.0874 0.0
24.3656 14.0217 0.0
25.8837 3.85413 0.0
27.6471 3.8549 0.0
27.2693 14.6481 0.0
27.0981 15.9765 0.0
45.6745 15.4424 0.0
46.707 15.6245 0.0
46.5153 20.3703 0.0
44.5744 21.4513 0.0
42.8276 20.8162 0.0
41.5353 19.8077 0.0
-23.14 -49.2976 0.0
-22.9804 -49.2736 0.0
-21.8993 -41.7272 0.0
-26.1864 -44.1803 0.0
-20.5748 -25.7063 0.0
-19.787 -27.4323 0.0
-18.7188 -27.4367 0.0
-16.9492 -24.7448 0.0
-17.1858 -20.7443 0.0
-17.5189 -20.2465 0.0
-19.8841 -19.4719 0.0
-23.604 38.9771 0.0
-23.6498 36.7182 0.0
-22.462 36.0162 0.0
-19.3658 35.327 0.0
-17.9259 36.5994 0.0
-18.3045 39.8384 0.0
43.4743 -4.60103 0.0
48.1945 -2.91465 0.0
46.3123 0.545367 0.0
42.1682 -3.49648 0.0
-42.786 -13.167 0.0
-49.1022 -13.0813 0.0
-49.3101 -14.677 0.0
-44.5907 -17.2179 0.0
-42.9808 -17.3346 0.0
-49.2407 29.0326 0.0
-44.8903 31.2784 0.0
-41.6773 38.967 0.0
-43.5409 38.0749 0.0
-33.5191 40.3846 0.0
-33.5683 39.1827 0.0
-30.8477 30.5941 0.0
-29.1039 30.5531 0.0
-27.1242 34.84 0.0
-29.6637 37.5984 0.0
0.515334 57.3351 0.0
-0.195763 57.0518 0.0
0.769754 52.0436 0.0
4.62602 50.9507 0.0
4.97167 54.9417 0.0
41.425 11.9587 0.0
42.2683 9.70768 0.0
44.5107 7.80216 0.0
45.8214 7.98179 0.0
48.899 9.51148 0.0
48.5691 10.9148 0.0
51.267 8.40452 0.0
49.2106 9.16878 0.0
46.1329 7.63908 0.0
47.0098 2.47878 0.0
-50.6142 -23.6593 0.0
-51.7383 -20.4694 0.0
-57.1041 -22.1088 0.0
-55.6292 -26.8653 0.0
-52.9685 -25.515 0.0
9.65642 -45.6788 0.0
12.9945 -44.9378 0.0
13.5983 -41.6928 0.0
9.32862 -39.552 0.0
8.25278 -39.1293 0.0
7.31039 -39.4602 0.0
17.0381 -34.8364 0.0
19.3548 -32.6974 0.0
[...]
<CellData Scalars="cell variable 4" Vectors="cell vector">
<DataArray type="Float64" NumberOfComponents="3" Name="cell vector" format="ascii">
0 0 0
0 0 0
0 0 0
0 0 0
0 0 0
0 0 0
0 0 0
0 0 0
0 0 0
0 0 0
0 0 0
0 0 0
0 0 0
0 0 0
0 0 0
0 0 0
0 0 0
0 0 0
0 0 0
0 0 0
0 0 0
0 0 0
0 0 0
0 0 0
0 0 0
0 0 0
0 0 0
0 0 0
0 0 0
0 0 0
0 0 0
0 0 0
0 0 0
0 0 0
0 0 0
0 0 0
0 0 0
0 0 0
0 0 0
0 0 0
0 0 0
0 0 0
0 0 0
0 0 0
0 0 0
0 0 0
0 0 0
0 0 0
0 0 0
0 0 0
0 0 0
0 0 0
0 0 0
0 0 0
0 0 0
0 0 0
0 0 0
0 0 0
0 0 0
0 0 0
0 0 0
0 0 0
0 0 0
0 0 0
0 0 0
0 0 0
0 0 0
0 0 0
0 0 0
0 0 0
0 0 0
0 0 0
0 0 0
0 0 0
0 0 0
0 0 0
0 0 0
0 0 0
0 0 0
0 0 0
0 0 0
0 0 0
0 0 0
0 0 0
0 0 0
0 0 0
0 0 0
0 0 0
0 0 0
0 0 0
0 0 0
0 0 0
0 0 0
0 0 0
0 0 0
0 0 0
0 0 0
0 0 0
0 0 0
0 0 0
0 0 0
0 0 0
0 0 0
0 0 0
0 0 0
0 0 0
0 0 0
0 0 0
0 0 0
0 0 0
0 0 0
0 0 0
0 0 0
0 0 0
0 0 0
0 0 0
0 0 0
0 0 0
0 0 0
0 0 0
0 0 0
0 0 0
0 0 0
0 0 0
0 0 0
0 0 0
0 0 0
0 0 0
0 0 0
0 0 0
0 0 0
0 0 0
0 0 0
0 0 0
0 0 0
0 0 0
0 0 0
0 0 0
0 0 0
0 0 0
0 0 0
0 0 0
0 0 0
0 0 0
0 0 0
0 0 0
0 0 0
0 0 0
0 0 0
0 0 0
0 0 0
0 0 0
0 0 0
0 0 0
0 0 0
0 0 0
0 0 0
0 0 0
0 0 0
0 0 0
0 0 0
0 0 0
0 0 0
0 0 0
0 0 0
0 0 0
0 0 0
0 0 0
0 0 0
0 0 0
0 0 0
0 0 0
0 0 0
0 0 0
0 0 0
0 0 0
0 0 0
0 0 0
0 0 0
0 0 0
0 0 0
0 0 0
0 0 0
0 0 0
0 0 0
0 0 0
0 0 0
0 0 0
0 0 0
0 0 0
0 0 0
0 0 0
0 0 0
0 0 0
0 0 0
0 0 0
0 0 0
0 0 0
0 0 0
0 0 0
0 0 0
0 0 0
0 0 0
0 0 0
0 0 0
0 0 0
0 0 0
0 0 0
0 0 0
0 0 0
0 0 0
0 0 0
0 0 0
0 0 0
0 0 0
0 0 0
0 0 0
0 0 0
0 0 0
0 0 0
0 0 0
0 0 0
0 0 0
0 0 0
0 0 0
0 0 0
0 0 0
0 0 0
0 0 0
0 0 0
0 0 0
0 0 0
0 0 0
0 0 0
0 0 0
0 0 0
0 0 0
0 0 0
0 0 0
0 0 0
0 0 0
0 0 0
0 0 0
0 0 0
0 0 0
0 0 0
0 0 0
0 0 0
0 0 0
0 0 0
0 0 0
0 0 0
0 0 0
0 0 0
0 0 0
0 0 0
0 0 0
0 0 0
0 0 0
0 0 0
0 0 0
0 0 0
0 0 0
0 0 0
0 0 0
0 0 0
0 0 0
0 0 0
0 0 0
0 0 0
0 0 0
0 0 0
0 0 0
0 0 0
0 0 0
0 0 0
0 0 0
0 0 0
0 0 0
0 0 0
0 0 0
0 0 0
0 0 0
0 0 0
0 0 0
0 0 0
0 0 0
0 0 0
0 0 0
0 0 0
0 0 0
0 0 0
0 0 0
0 0 0
0 0 0
0 0 0
0 0 0
0 0 0
0 0 0
0 0 0
0 0 0
0 0 0
0 0 0
0 0 0
0 0 0
0 0 0
0 0 0
0 0 0
0 0 0
0 0 0
0 0 0
0 0 0
0 0 0
0 0 0
0 0 0
0 0 0
0 0 0
0 0 0
0 0 0
0 0 0
0 0 0
0 0 0
0 0 0
0 0 0
0 0 0
0 0 0
0 0 0
0 0 0
0 0 0
0 0 0
0 0 0
0 0 0
0 0 0
0 0 0
0 0 0
0 0 0
0 0 0
0 0 0
0 0 0
0 0 0
0 0 0
0 0 0
0 0 0
0 0 0
0 0 0
0 0 0
0 0 0
0 0 0
0 0 0
0 0 0
0 0 0
0 0 0
0 0 0
0 0 0
0 0 0
0 0 0
0 0 0
0 0 0
0 0 0
0 0 0
0 0 0
0 0 0
0 0 0
0 0 0
0 0 0
0 0 0
0 0 0
0 0 0
0 0 0
0 0 0
0 0 0
0 0 0
0 0 0
0 0 0
0 0 0
0 0 0
0 0 0
0 0 0
0 0 0
0 0 0
0 0 0
0 0 0
0 0 0
0 0 0
0 0 0
0 0 0
0 0 0
0 0 0
0 0 0
0 0 0
0 0 0
0 0 0
0 0 0
0 0 0
0 0 0
0 0 0
0 0 0
0 0 0
0 0 0
0 0 0
0 0 0
0 0 0
0 0 0
0 0 0
0 0 0
0 0 0
0 0 0
0 0 0
0 0 0
0 0 0
0 0 0
0 0 0
</DataArray>
<DataArray type="Float64" Name="cell vector length" format="ascii">
0 0 0 0 0 0 0 0 0 0 0 0 0 0 0 0 0 0 0 0 0 0 0 0 0 0 0 0 0 0 0 0 0 0 0 0 0 0 0 0 0 0 0 0 0 0 0 0 0 0 0 0 0 0 0 0 0 0 0 0 0 0 0 0 0 0 0 0 0 0 0 0 0 0 0 0 0 0 0 0 0 0 0 0 0 0 0 0 0 0 0 0 0 0 0 0 0 0 0 0 0 0 0 0 0 0 0 0 0 0 0 0 0 0 0 0 0 0 0 0 0 0 0 0 0 0 0 0 0 0 0 0 0 0 0 0 0 0 0 0 0 0 0 0 0 0 0 0 0 0 0 0 0 0 0 0 0 0 0 0 0 0 0 0 0 0 0 0 0 0 0 0 0 0 0 0 0 0 0 0 0 0 0 0 0 0 0 0 0 0 0 0 0 0 0 0 0 0 0 0 0 0 0 0 0 0 0 0 0 0 0 0 0 0 0 0 0 0 0 0 0 0 0 0 0 0 0 0 0 0 0 0 0 0 0 0 0 0 0 0 0 0 0 0 0 0 0 0 0 0 0 0 0 0 0 0 0 0 0 0 0 0 0 0 0 0 0 0 0 0 0 0 0 0 0 0 0 0 0 0 0 0 0 0 0 0 0 0 0 0 0 0 0 0 0 0 0 0 0 0 0 0 0 0 0 0 0 0 0 0 0 0 0 0 0 0 0 0 0 0 0 0 0 0 0 0 0 0 0 0 0 0 0 0 0 0 0 0 0 0 0 0 0 0 0 0 0 0 0 0 0 0 0 0 0 0 0 0 0 0 0 0 0 0 0 0 0 0 0 0 0 0 0 0 0 0 0 0 0 0 0 0 0 0 0 0 0 0 0 0 0 0 0 0 0 0 0 0 0 0 0 0 0 0 0 0 0 0 0 0 0 0 
</DataArray>
<DataArray type="Float64" Name="cell variable 4" format="ascii">
0.316217 0.434405 0.657465 1.07467 0.249242 0.94865 0.542818 0.94865 0.371127 0.399988 1.14226 0.479217 0.790107 1.04461 0.573608 0.66381 0.334198 0.495708 0.573608 0.573608 0.542818 0.99432 0.511974 0.511974 0.118662 0.495708 0.393381 0.179448 0.495708 0.163146 0.332003 0.626025 0.980966 0.626025 0.437452 0.184059 0.36504 0.179448 0.673042 0.313432 0.393247 0.179448 0.187543 0.179448 0.626025 1.10185 1.11547 0.434405 0.514292 0.657465 0.848855 0.23011 0.442722 0.33356 0.673042 0.179448 1.06245 0.736473 1.11547 0.912892 0.573608 0.136507 1.04461 1.07467 0.736473 0.542818 1.12037 0.848855 0.50937 0.393247 0.631062 0.503886 0.45141 0.542818 0.153908 0.371127 0.36504 0.50937 0.45141 0.23011 0.442722 0.708918 0.495708 0.790107 0.45141 0.399988 1.04461 1.10185 1.14226 0.371127 0.184973 0.708918 0.36504 0.334198 0.980966 0.0978407 0.118662 0.919422 0.503886 0.542818 0.503886 1.04461 0.249242 0.313432 0.631062 0.919422 0.479217 0.23011 0.434405 0.912892 0.542818 0.790107 0.763876 0.673042 0.184059 0.334198 0.542818 0.657465 1.11547 0.789941 0.393247 0.511974 0.399988 0.343308 0.393381 0.673042 0.32239 0.573608 0.99432 0.514292 0.514292 0.763876 0.789941 0.393381 0.66381 1.06245 0.50937 0.789941 1.04461 0.789941 0.790107 1.00681 1.12037 0.393247 0.187543 0.980966 0.66381 0.99432 0.32239 0.848855 0.511974 0.980966 0.313432 0.919422 1.00681 0.332003 0.912892 0.790107 0.542818 1.06245 1.07467 0.94865 0.848855 1.06245 0.511974 0.763876 0.657465 0.0505895 1.11547 0.36504 0.27464 0.184973 0.573608 0.371127 0.313432 0.313432 1.00681 1.00681 0.343308 0.187543 1.12037 1.00681 1.00681 0.657465 0.442722 0.437452 0.657465 1.11547 0.313432 0.848855 0.23011 0.912892 1.07467 0.399988 0.50937 0.789941 0.94865 0.0773391 0.8063 0.50937 0.790107 0.393247 0.161465 0.657465 0.631062 0.50937 0.45141 0.708918 0.763876 0.442722 0.514292 0.673042 0.631062 0.495708 0.316217 0.153908 0.316217 0.136507 0.573608 1.07467 0.252014 0.316217 0.434405 0.45141 0.343308 0.8063 0.511974 0.332003 0.437452 0.763876 0.316217 0.90618 0.27464 1.10185 1.04461 0.0646441 1.10185 0.479217 0.0976075 0.631062 0.249242 0.23011 0.343308 0.32239 0.32239 0.399988 0.90618 0.736473 0.153908 0.0505895 1.10185 0.393247 0.626025 0.36504 0.316217 0.763876 1.10185 0.27464 0.442722 0.437452 0.32239 0.514292 0.184059 0.45141 0.36504 0.631062 1.14226 0.912892 0.437452 0.919422 1.11547 0.789941 0.136507 0.542818 0.503886 0.163146 0.36504 0.631062 0.94865 0.187543 0.187543 0.736473 0.8063 0.912892 0.249242 0.631062 0.573608 0.343308 0.50937 1.00681 0.343308 0.23011 0.94865 0.32239 0.332003 0.8063 0.66381 0.184973 0.66381 0.673042 0.912892 0.790107 0.153908 0.334198 0.187543 0.130161 0.33356 0.313432 0.161465 0.90618 0.631062 0.542818 1.12037 1.07467 0.912892 0.399988 1.10185 1.11547 0.980966 0.8063 0.631062 0.32239 0.393381 0.399988 0.332003 0.316217 0.542818 1.14226 0.573608 0.33356 1.04461 0.66381 0.708918 0.252014 0.626025 0.479217 0.90618 0.495708 0.36504 0.514292 0.542818 0.249242 1.00681 0.393381 0.99432 1.06245 0.8063 0.848855 0.33356 0.434405 0.657465 0.573608 0.919422 0.442722 0.399988 0.252014 0.514292 0.8063 0.495708 1.14226 1.12037 0.343308 0.313432 0.919422 0.919422 0.763876 0.848855 0.313432 0.789941 1.11547 0.980966 0.442722 0.434405 1.10185 0.23011 0.790107 0.153908 0.393247 0.673042 0.626025 0.66381 0.511974 1.06245 0.514292 0.542818 0.343308 0.252014 0.90618 1.14226 0.631062 0.626025 1.04461 0.179448 0.371127 0.334198 0.919422 0.66381 0.511974 1.06245 0.161465 1.07467 0.252014 0.789941 0.442722 0.673042 0.371127 0.27464 0.848855 0.23011 0.434405 0.763876 0.631062 
</DataArray>
<DataArray type="Float64" Name="cell variable 5" format="ascii">
0.0909148 0.0503251 0.0226112 0.00858434 0.138655 0.0109898 0.0328244 0.0109898 0.0676886 0.0588268 0.00760594 0.0417277 0.0157662 0.00908091 0.0294962 0.0221905 0.082177 0.0391044 0.0294962 0.0294962 0.0328244 0.0100133 0.0367488 0.0367488 0.415271 0.0391044 0.0606986 0.236958 0.0391044 0.273099 0.0831765 0.0248813 0.0102849 0.0248813 0.0496613 0.227907 0.0698059 0.236958 0.021599 0.0923878 0.0607373 0.236958 0.221374 0.236958 0.0248813 0.00816951 0.00797274 0.0503251 0.0364304 0.0226112 0.0136882 0.158855 0.0485429 0.0824658 0.021599 0.236958 0.00878122 0.0181031 0.00797274 0.0118572 0.0294962 0.349234 0.00908091 0.00858434 0.0181031 0.0328244 0.00790366 0.0136882 0.0371116 0.0607373 0.0244954 0.037893 0.0467791 0.0328244 0.296844 0.0676886 0.0698059 0.0371116 0.0467791 0.158855 0.0485429 0.0195097 0.0391044 0.0157662 0.0467791 0.0588268 0.00908091 0.00816951 0.00760594 0.0676886 0.226167 0.0195097 0.0698059 0.082177 0.0102849 0.510913 0.415271 0.0116913 0.037893 0.0328244 0.037893 0.00908091 0.138655 0.0923878 0.0244954 0.0116913 0.0417277 0.158855 0.0503251 0.0118572 0.0328244 0.0157662 0.016849 0.021599 0.227907 0.082177 0.0328244 0.0226112 0.00797274 0.0157727 0.0607373 0.0367488 0.0588268 0.0782104 0.0606986 0.021599 0.0877689 0.0294962 0.0100133 0.0364304 0.0364304 0.016849 0.0157727 0.0606986 0.0221905 0.00878122 0.0371116 0.0157727 0.00908091 0.0157727 0.0157662 0.00976872 0.00790366 0.0607373 0.221374 0.0102849 0.0221905 0.0100133 0.0877689 0.0136882 0.0367488 0.0102849 0.0923878 0.0116913 0.00976872 0.0831765 0.0118572 0.0157662 0.0328244 0.00878122 0.00858434 0.0109898 0.0136882 0.00878122 0.0367488 0.016849 0.0226112 0.796223 0.00797274 0.0698059 0.117059 0.226167 0.0294962 0.0676886 0.0923878 0.0923878 0.00976872 0.00976872 0.0782104 0.221374 0.00790366 0.00976872 0.00976872 0.0226112 0.0485429 0.0496613 0.0226112 0.00797274 0.0923878 0.0136882 0.158855 0.0118572 0.00858434 0.0588268 0.0371116 0.0157727 0.0109898 0.62573 0.0151488 0.0371116 0.0157662 0.0607373 0.277231 0.0226112 0.0244954 0.0371116 0.0467791 0.0195097 0.016849 0.0485429 0.0364304 0.021599 0.0244954 0.0391044 0.0909148 0.296844 0.0909148 0.349234 0.0294962 0.00858434 0.136034 0.0909148 0.0503251 0.0467791 0.0782104 0.0151488 0.0367488 0.0831765 0.0496613 0.016849 0.0909148 0.0120314 0.117059 0.00816951 0.00908091 0.705275 0.00816951 0.0417277 0.512105 0.0244954 0.138655 0.158855 0.0782104 0.0877689 0.0877689 0.0588268 0.0120314 0.0181031 0.296844 0.796223 0.00816951 0.0607373 0.0248813 0.0698059 0.0909148 0.016849 0.00816951 0.117059 0.0485429 0.0496613 0.0877689 0.0364304 0.227907 0.0467791 0.0698059 0.0244954 0.00760594 0.0118572 0.0496613 0.0116913 0.00797274 0.0157727 0.349234 0.0328244 0.037893 0.273099 0.0698059 0.0244954 0.0109898 0.221374 0.221374 0.0181031 0.0151488 0.0118572 0.138655 0.0244954 0.0294962 0.0782104 0.0371116 0.00976872 0.0782104 0.158855 0.0109898 0.0877689 0.0831765 0.0151488 0.0221905 0.226167 0.0221905 0.021599 0.0118572 0.0157662 0.296844 0.082177 0.221374 0.371169 0.0824658 0.0923878 0.277231 0.0120314 0.0244954 0.0328244 0.00790366 0.00858434 0.0118572 0.0588268 0.00816951 0.00797274 0.0102849 0.0151488 0.0244954 0.0877689 0.0606986 0.0588268 0.0831765 0.0909148 0.0328244 0.00760594 0.0294962 0.0824658 0.00908091 0.0221905 0.0195097 0.136034 0.0248813 0.0417277 0.0120314 0.0391044 0.0698059 0.0364304 0.0328244 0.138655 0.00976872 0.0606986 0.0100133 0.00878122 0.0151488 0.0136882 0.0824658 0.0503251 0.0226112 0.0294962 0.0116913 0.0485429 0.0588268 0.136034 0.0364304 0.0151488 0.0391044 0.00760594 0.00790366 0.0782104 0.0923878 0.0116913 0.0116913 0.016849 0.0136882 0.0923878 0.0157727 0.00797274 0.0102849 0.0485429 0.0503251 0.00816951 0.158855 0.0157662 0.296844 0.0607373 0.021599 0.0248813 0.0221905 0.0367488 0.00878122 0.0364304 0.0328244 0.0782104 0.136034 0.0120314 0.00760594 0.0244954 0.0248813 0.00908091 0.236958 0.0676886 0.082177 0.0116913 0.0221905 0.0367488 0.00878122 0.277231 0.00858434 0.136034 0.0157727 0.0485429 0.021599 0.0676886 0.117059 0.0136882 0.158855 0.0503251 0.016849 0.0244954 
</DataArray>
<DataArray type="Float64" Name="cell variable 6" format="ascii">
0.0038835 0.000857904 8.84138e-05 5.3719e-06 0.0566856 1.10661e-05 0.000251962 1.10661e-05 0.0019189 0.00127682 3.76475e-06 0.00051123 3.15261e-05 6.33494e-06 0.000187165 8.3838e-05 0.00576492 0.000410215 0.000187165 0.000187165 0.000251962 8.43313e-06 0.00035504 0.00035504 0.533485 0.000410215 0.00151522 0.235078 0.000410215 0.294057 0.00364689 0.000115922 9.11938e-06 0.000115922 0.000885689 0.235443 0.0019794 0.235078 7.76673e-05 0.00439847 0.00202135 0.235078 0.185318 0.235078 0.000115922 4.64493e-06 4.32387e-06 0.000857904 0.000349016 8.84138e-05 2.09522e-05 0.0671729 0.000858618 0.00403961 7.76673e-05 0.235078 5.74138e-06 4.69278e-05 4.32387e-06 1.38076e-05 0.000187165 0.432355 6.33494e-06 5.3719e-06 4.69278e-05 0.000251962 4.21468e-06 2.09522e-05 0.000394946 0.00202135 0.000110922 0.000380196 0.000696942 0.000251962 0.3398 0.0019189 0.0019794 0.000394946 0.000696942 0.0671729 0.000858618 5.81379e-05 0.000410215 3.15261e-05 0.000696942 0.00127682 6.33494e-06 4.64493e-06 3.76475e-06 0.0019189 0.208208 5.81379e-05 0.0019794 0.00576492 9.11938e-06 0.674122 0.533485 1.32528e-05 0.000380196 0.000251962 0.000380196 6.33494e-06 0.0566856 0.00439847 0.000110922 1.32528e-05 0.00051123 0.0671729 0.000857904 1.38076e-05 0.000251962 3.15261e-05 3.81646e-05 7.76673e-05 0.235443 0.00576492 0.000251962 8.84138e-05 4.32387e-06 3.156e-05 0.00202135 0.00035504 0.00127682 0.00310284 0.00151522 7.76673e-05 0.00628005 0.000187165 8.43313e-06 0.000349016 0.000349016 3.81646e-05 3.156e-05 0.00151522 8.3838e-05 5.74138e-06 0.000394946 3.156e-05 6.33494e-06 3.156e-05 3.15261e-05 7.8448e-06 4.21468e-06 0.00202135 0.185318 9.11938e-06 8.3838e-05 8.43313e-06 0.00628005 2.09522e-05 0.00035504 9.11938e-06 0.00439847 1.32528e-05 7.8448e-06 0.00364689 1.38076e-05 3.15261e-05 0.000251962 5.74138e-06 5.3719e-06 1.10661e-05 2.09522e-05 5.74138e-06 0.00035504 3.81646e-05 8.84138e-05 0.900072 4.32387e-06 0.0019794 0.02163 0.208208 0.000187165 0.0019189 0.00439847 0.00439847 7.8448e-06 7.8448e-06 0.00310284 0.185318 4.21468e-06 7.8448e-06 7.8448e-06 8.84138e-05 0.000858618 0.000885689 8.84138e-05 4.32387e-06 0.00439847 2.09522e-05 0.0671729 1.38076e-05 5.3719e-06 0.00127682 0.000394946 3.156e-05 1.10661e-05 0.780596 2.80904e-05 0.000394946 3.15261e-05 0.00202135 0.298329 8.84138e-05 0.000110922 0.000394946 0.000696942 5.81379e-05 3.81646e-05 0.000858618 0.000349016 7.76673e-05 0.000110922 0.000410215 0.0038835 0.3398 0.0038835 0.432355 0.000187165 5.3719e-06 0.0441278 0.0038835 0.000857904 0.000696942 0.00310284 2.80904e-05 0.00035504 0.00364689 0.000885689 3.81646e-05 0.0038835 1.4406e-05 0.02163 4.64493e-06 6.33494e-06 0.841792 4.64493e-06 0.00051123 0.67289 0.000110922 0.0566856 0.0671729 0.00310284 0.00628005 0.00628005 0.00127682 1.4406e-05 4.69278e-05 0.3398 0.900072 4.64493e-06 0.00202135 0.000115922 0.0019794 0.0038835 3.81646e-05 4.64493e-06 0.02163 0.000858618 0.000885689 0.00628005 0.000349016 0.235443 0.000696942 0.0019794 0.000110922 3.76475e-06 1.38076e-05 0.000885689 1.32528e-05 4.32387e-06 3.156e-05 0.432355 0.000251962 0.000380196 0.294057 0.0019794 0.000110922 1.10661e-05 0.185318 0.185318 4.69278e-05 2.80904e-05 1.38076e-05 0.0566856 0.000110922 0.000187165 0.00310284 0.000394946 7.8448e-06 0.00310284 0.0671729 1.10661e-05 0.00628005 0.00364689 2.80904e-05 8.3838e-05 0.208208 8.3838e-05 7.76673e-05 1.38076e-05 3.15261e-05 0.3398 0.00576492 0.185318 0.477444 0.00403961 0.00439847 0.298329 1.4406e-05 0.000110922 0.000251962 4.21468e-06 5.3719e-06 1.38076e-05 0.00127682 4.64493e-06 4.32387e-06 9.11938e-06 2.80904e-05 0.000110922 0.00628005 0.00151522 0.00127682 0.00364689 0.0038835 0.000251962 3.76475e-06 0.000187165 0.00403961 6.33494e-06 8.3838e-05 5.81379e-05 0.0441278 0.000115922 0.00051123 1.4406e-05 0.000410215 0.0019794 0.000349016 0.000251962 0.0566856 7.8448e-06 0.00151522 8.43313e-06 5.74138e-06 2.80904e-05 2.09522e-05 0.00403961 0.000857904 8.84138e-05 0.000187165 1.32528e-05 0.000858618 0.00127682 0.0441278 0.000349016 2.80904e-05 0.000410215 3.76475e-06 4.21468e-06 0.00310284 0.00439847 1.32528e-05 1.32528e-05 3.81646e-05 2.09522e-05 0.00439847 3.156e-05 4.32387e-06 9.11938e-06 0.000858618 0.000857904 4.64493e-06 0.0671729 3.15261e-05 0.3398 0.00202135 7.76673e-05 0.000115922 8.3838e-05 0.00035504 5.74138e-06 0.000349016 0.000251962 0.00310284 0.0441278 1.4406e-05 3.76475e-06 0.000110922 0.000115922 6.33494e-06 0.235078 0.0019189 0.00576492 1.32528e-05 8.3838e-05 0.00035504 5.74138e-06 0.298329 5.3719e-06 0.0441278 3.156e-05 0.000858618 7.76673e-05 0.0019189 0.02163 2.09522e-05 0.0671729 0.000857904 3.81646e-05 0.000110922 
</DataArray>
<DataArray type="Float64" Name="cell variable 7" format="ascii">
0.357275 0.264653 0.176526 0.0863829 0.413855 0.109939 0.214434 0.109939 0.306453 0.285858 0.0738515 0.24144 0.142821 0.091923 0.203114 0.174715 0.334908 0.233945 0.203114 0.203114 0.214434 0.10127 0.2268 0.2268 0.633332 0.233945 0.290041 0.481302 0.233945 0.531783 0.340125 0.185875 0.103782 0.185875 0.262734 0.426674 0.311423 0.481302 0.172124 0.360012 0.288948 0.481302 0.511928 0.481302 0.185875 0.0813708 0.0788486 0.264653 0.225806 0.176526 0.129973 0.46057 0.259721 0.337987 0.172124 0.481302 0.0886341 0.15552 0.0788486 0.116913 0.203114 0.58017 0.091923 0.0863829 0.15552 0.214434 0.0779382 0.129973 0.227704 0.288948 0.184332 0.230311 0.255368 0.214434 0.544906 0.306453 0.311423 0.227704 0.255368 0.46057 0.259721 0.162493 0.233945 0.142821 0.255368 0.285858 0.091923 0.0813708 0.0738515 0.306453 0.488241 0.162493 0.311423 0.334908 0.103782 0.570965 0.633332 0.115625 0.230311 0.214434 0.230311 0.091923 0.413855 0.360012 0.184332 0.115625 0.24144 0.46057 0.264653 0.116913 0.214434 0.142821 0.148901 0.172124 0.426674 0.334908 0.214434 0.176526 0.0788486 0.142859 0.288948 0.2268 0.285858 0.329428 0.290041 0.172124 0.347352 0.203114 0.10127 0.225806 0.225806 0.148901 0.142859 0.290041 0.174715 0.0886341 0.227704 0.142859 0.091923 0.142859 0.142821 0.0989326 0.0779382 0.288948 0.511928 0.103782 0.174715 0.10127 0.347352 0.129973 0.2268 0.103782 0.360012 0.115625 0.0989326 0.340125 0.116913 0.142821 0.214434 0.0886341 0.0863829 0.109939 0.129973 0.0886341 0.2268 0.148901 0.176526 0.667622 0.0788486 0.311423 0.399197 0.488241 0.203114 0.306453 0.360012 0.360012 0.0989326 0.0989326 0.329428 0.511928 0.0779382 0.0989326 0.0989326 0.176526 0.259721 0.262734 0.176526 0.0788486 0.360012 0.129973 0.46057 0.116913 0.0863829 0.285858 0.227704 0.142859 0.109939 0.646851 0.139181 0.227704 0.142821 0.288948 0.543895 0.176526 0.184332 0.227704 0.255368 0.162493 0.148901 0.259721 0.225806 0.172124 0.184332 0.233945 0.357275 0.544906 0.357275 0.58017 0.203114 0.0863829 0.422896 0.357275 0.264653 0.255368 0.329428 0.139181 0.2268 0.340125 0.262734 0.148901 0.357275 0.118245 0.399197 0.0813708 0.091923 0.663687 0.0813708 0.24144 0.58928 0.184332 0.413855 0.46057 0.329428 0.347352 0.347352 0.285858 0.118245 0.15552 0.544906 0.667622 0.0813708 0.288948 0.185875 0.311423 0.357275 0.148901 0.0813708 0.399197 0.259721 0.262734 0.347352 0.225806 0.426674 0.255368 0.311423 0.184332 0.0738515 0.116913 0.262734 0.115625 0.0788486 0.142859 0.58017 0.214434 0.230311 0.531783 0.311423 0.184332 0.109939 0.511928 0.511928 0.15552 0.139181 0.116913 0.413855 0.184332 0.203114 0.329428 0.227704 0.0989326 0.329428 0.46057 0.109939 0.347352 0.340125 0.139181 0.174715 0.488241 0.174715 0.172124 0.116913 0.142821 0.544906 0.334908 0.511928 0.557964 0.337987 0.360012 0.543895 0.118245 0.184332 0.214434 0.0779382 0.0863829 0.116913 0.285858 0.0813708 0.0788486 0.103782 0.139181 0.184332 0.347352 0.290041 0.285858 0.340125 0.357275 0.214434 0.0738515 0.203114 0.337987 0.091923 0.174715 0.162493 0.422896 0.185875 0.24144 0.118245 0.233945 0.311423 0.225806 0.214434 0.413855 0.0989326 0.290041 0.10127 0.0886341 0.139181 0.129973 0.337987 0.264653 0.176526 0.203114 0.115625 0.259721 0.285858 0.422896 0.225806 0.139181 0.233945 0.0738515 0.0779382 0.329428 0.360012 0.115625 0.115625 0.148901 0.129973 0.360012 0.142859 0.0788486 0.103782 0.259721 0.264653 0.0813708 0.46057 0.142821 0.544906 0.288948 0.172124 0.185875 0.174715 0.2268 0.0886341 0.225806 0.214434 0.329428 0.422896 0.118245 0.0738515 0.184332 0.185875 0.091923 0.481302 0.306453 0.334908 0.115625 0.174715 0.2268 0.0886341 0.543895 0.0863829 0.422896 0.142859 0.259721 0.172124 0.306453 0.399197 0.129973 0.46057 0.264653 0.148901 0.184332 
</DataArray>
<DataArray type="Float64" Name="cell variable 8" format="ascii">