<VTKFile type="UnstructuredGrid" version="0.1">
<UnstructuredGrid>
<Piece  NumberOfPoints="    3322" NumberOfCells="    2443">
<Points>
<DataArray type="Float64" NumberOfComponents="3" format="ascii">
-48.1724 -37.5722 0 
7.13111 7.41574 0 
40.1567 -4.86037 0 
0.999489 -49.9787 0 
-21.5693 38.6175 0 
-53.9955 20.3869 0 
6.28764 -34.8749 0 
-33.8949 -42.3532 0 
-0.343533 -41.4402 0 
1.04027 -22.0687 0 
-50.592 12.0985 0 
37.6221 -18.0847 0 
-11.2893 32.7037 0 
5.34266 -51.9325 0 
54.8603 20.336 0 
-8.4825 -33.609 0 
-16.3356 14.8478 0 
-40.6934 25.6858 0 
-23.2707 -30.8779 0 
24.9855 -15.7528 0 
19.3172 48.141 0 
34.927 41.6806 0 
-40.514 -33.4904 0 
4.42546 0.667023 0 
0.667214 -25.1103 0 
44.1806 -8.11526 0 
-26.2144 -48.1115 0 
-21.9693 -44.2958 0 
-45.5556 12.3783 0 
-51.1237 -10.8119 0 
21.3519 39.7258 0 
35.9328 18.4185 0 
-32.4698 -51.7022 0 
-26.5063 50.8385 0 
-23.0695 -11.0169 0 
-45.7128 -33.8907 0 
-11.4643 28.7394 0 
-7.27433 40.6209 0 
28.269 45.7177 0 
-7.52359 -53.396 0 
31.84 27.977 0 
-40.0879 -3.42442 0 
30.8864 -51.2546 0 
-5.28856 54.1925 0 
14.0785 39.1515 0 
53.8769 -16.1222 0 
-10.3299 -1.04975 0 
-22.1326 27.0586 0 
4.98952 17.4289 0 
-4.00621 -34.6629 0 
33.4196 -28.5143 0 
20.2808 59.4967 0 
-20.1253 -7.53232 0 
37.0663 -33.9925 0 
-20.4417 -19.3864 0 
-35.5781 5.46066 0 
-7.89444 -42.2648 0 
31.2378 -32.3432 0 
11.336 -22.1966 0 
14.0546 43.9461 0 
-21.5165 27.1028 0 
44.7576 -31.4057 0 
39.771 -39.9341 0 
32.9637 -21.1929 0 
-49.2458 26.4797 0 
7.27836 46.81 0 
20.2193 25.312 0 
-53.816 -22.5573 0 
19.6346 -14.0672 0 
45.1065 -21.8588 0 
12.037 -3.23294 0 
-44.2604 -32.473 0 
34.9448 49.0829 0 
-25.396 58.3899 0 
59.4635 15.7661 0 
-38.634 -16.3034 0 
19.6739 -21.7994 0 
-36.7187 37.6516 0 
21.0101 -38.0554 0 
-9.02132 40.6029 0 
-58.8469 -5.41236 0 
25.5736 -31.5347 0 
-8.44463 -9.09125 0 
-54.2417 -13.981 0 
44.7102 22.4113 0 
-0.504066 21.6199 0 
-56.5652 -12.5158 0 
-0.934165 47.6823 0 
-38.1614 7.17405 0 
-32.7517 49.2181 0 
1.66333 -39.9634 0 
-23.6074 -23.5339 0 
20.1419 26.5319 0 
-21.8886 49.23 0 
24.9052 -32.1016 0 
19.0323 17.9605 0 
24.7955 -1.86063 0 
-17.5659 33.3303 0 
-14.3195 61.4462 0 
9.79723 -29.473 0 
18.0151 55.4481 0 
-42.2715 18.2366 0 
41.3809 10.8783 0 
-53.8138 6.31665 0 
52.5364 -14.9044 0 
-11.7195 -1.13325 0 
-52.503 -4.037 0 
25.563 -2.19193 0 
15.0294 -25.9261 0 
-44.4012 7.31046 0 
5.4268 -35.6369 0 
-14.5644 10.5603 0 
-24.2323 -43.7869 0 
21.1099 33.5029 0 
39.8666 -16.3135 0 
30.5493 -33.9042 0 
-26.6289 -23.9588 0 
5.477 -20.5561 0 
41.4722 -43.9552 0 
32.452 -4.04545 0 
26.3146 6.81363 0 
-8.10318 57.5386 0 
25.6385 -45.0282 0 
-50.2369 -19.103 0 
11.5484 -49.8714 0 
-35.2095 40.141 0 
-12.6694 -17.9876 0 
37.3778 -33.6293 0 
26.0501 48.2103 0 
7.84128 -44.5043 0 
6.59362 60.212 0 
-18.6509 -1.90716 0 
-37.4602 -27.6961 0 
-10.8108 -15.0087 0 
31.2662 -17.5589 0 
-36.5687 42.6318 0 
28.0488 -4.81702 0 
48.9063 -29.5218 0 
-40.6459 -6.51917 0 
-22.0503 38.1309 0 
-45.2971 3.81433 0 
35.0638 -16.4037 0 
-19.6113 -57.9219 0 
-4.67816 13.3327 0 
42.5961 39.6831 0 
3.1878 27.2421 0 
16.2811 33.5752 0 
19.289 -21.5787 0 
35.9419 19.092 0 
11.2524 35.5759 0 
-56.8591 20.0392 0 
-49.5728 -25.8516 0 
52.4861 28.2407 0 
-19.0841 38.8501 0 
1.60423 61.8683 0 
14.3211 -53.3731 0 
7.5831 16.8195 0 
16.481 10.645 0 
-48.5418 -8.98789 0 
-2.5726 -60.8227 0 
-18.9653 -3.26157 0 
-11.5671 -12.4675 0 
3.02635 51.4154 0 
-38.9711 31.5201 0 
-47.1044 -26.8862 0 
19.438 -6.6113 0 
21.6816 27.9778 0 
14.3351 -15.4915 0 
-36.3345 -41.6939 0 
-14.6483 -21.5246 0 
46.6733 17.6258 0 
-13.2943 46.375 0 
-29.8275 12.5874 0 
44.2047 11.531 0 
4.52429 -7.553 0 
-24.8092 33.7541 0 
-11.5399 21.6108 0 
-26.8051 50.6218 0 
20.4107 24.9473 0 
11.8298 -6.78998 0 
47.1254 34.5567 0 
-34.7367 -17.3431 0 
-39.0283 18.7613 0 
-2.8931 -42.9757 0 
-36.7618 42.8842 0 
39.3211 -23.3191 0 
41.2332 -34.1758 0 
9.26503 24.8033 0 
-29.7448 41.1839 0 
-23.3879 -10.3469 0 
41.261 0.370862 0 
59.0894 3.40997 0 
-17.323 -52.677 0 
-18.5701 -58.5813 0 
47.518 32.9404 0 
25.2155 -15.9964 0 
35.0207 30.9187 0 
-16.0995 9.30226 0 
46.3933 -16.6505 0 
-45.0755 37.5908 0 
38.4022 -21.4552 0 
25.1152 -2.05914 0 
-13.0816 9.47692 0 
-18.511 38.8201 0 
-10.793 -26.2836 0 
-14.0303 61.5968 0 
20.9722 53.4426 0 
-11.6903 30.3239 0 
-1.76623 -4.36495 0 
-31.1405 15.8761 0 
18.7667 -47.8065 0 
43.9418 11.4013 0 
39.2054 30.3309 0 
0.874252 40.5618 0 
-24.9583 58.4575 0 
-18.8308 -39.2814 0 
49.5539 -29.4772 0 
-2.88655 34.7612 0 
14.554 52.9614 0 
-4.17306 22.988 0 
-11.7984 16.073 0 
-22.2059 3.14584 0 
31.6077 -40.1958 0 
29.8916 -46.3526 0 
10.4257 21.4526 0 
15.6102 -27.7997 0 
38.3382 46.8759 0 
-3.15092 43.3115 0 
35.8627 -27.4668 0 
33.4559 -35.6315 0 
-44.3857 -20.5931 0 
13.6271 -2.08861 0 
-55.0211 2.81163 0 
-2.56538 -43.4188 0 
-46.3981 -17.5639 0 
16.7669 -32.6941 0 
-40.495 -9.82698 0 
-7.65478 5.23257 0 
-20.4609 9.42938 0 
-17.3689 -14.3663 0 
25.1419 -46.2618 0 
-7.33556 -52.8913 0 
-24.3849 43.0728 0 
-32.4843 -1.56182 0 
18.5086 -9.52993 0 
-27.719 13.1171 0 
1.74636 10.996 0 
-3.96599 -18.0823 0 
-7.92502 15.3837 0 
59.4786 4.74687 0 
57.8253 -5.37592 0 
40.0274 33.1652 0 
-30.6644 -14.4896 0 
22.0617 -9.23964 0 
5.85639 -16.7291 0 
31.1014 -31.8166 0 
-24.2741 -5.49187 0 
8.38476 -26.1827 0 
22.4154 -2.25394 0 
12.4726 -41.785 0 
-17.5334 -27.4495 0 
-30.6253 -22.8785 0 
-22.1473 13.4227 0 
34.2469 -27.6519 0 
10.8572 -58.4008 0 
38.6893 26.6602 0 
-61.2608 6.94783 0 
0.60907 35.9153 0 
43.0686 -41.7941 0 
43.1647 27.6307 0 
-10.5085 22.153 0 
28.1901 38.8692 0 
-19.9114 -31.842 0 
34.2063 16.8669 0 
9.36861 54.5739 0 
17.0896 -56.343 0 
-14.583 60.989 0 
-20.9072 16.9178 0 
-15.9796 -33.4748 0 
-55.9441 -28.1497 0 
8.71697 30.4511 0 
-29.3697 0.0192248 0 
30.5473 -40.7804 0 
30.6372 27.2517 0 
3.41293 -58.9711 0 
-46.7905 24.3685 0 
-45.9458 12.5945 0 
21.1131 -51.8439 0 
-39.0045 31.977 0 
32.9326 4.97975 0 
-25.1995 -10.2627 0 
-61.9205 -2.89268 0 
-2.79535 14.0256 0 
-43.096 -20.5817 0 
53.708 16.9056 0 
34.5286 -6.9633 0 
-8.34077 -21.5692 0 
-1.53533 21.1082 0 
-47.5132 -15.4645 0 
-4.34513 -23.3088 0 
53.2235 -2.13615 0 
-52.4834 35.0314 0 
43.689 -10.8679 0 
-5.57432 36.3245 0 
3.29043 34.1601 0 
-38.8754 16.7156 0 
-32.775 49.7641 0 
-49.0844 37.6203 0 
27.419 18.0553 0 
17.3143 20.0905 0 
-8.78793 -51.5035 0 
20.2773 -40.985 0 
-3.1862 54.2133 0 
-33.7536 -28.9484 0 
-58.9221 10.3997 0 
59.162 -9.62656 0 
7.49768 -61.5462 0 
-16.6214 50.5262 0 
-39.7542 18.712 0 
51.4818 16.4586 0 
33.5425 35.8212 0 
53.6634 8.16151 0 
-3.732 32.9124 0 
-38.4904 -46.1071 0 
37.211 25.2128 0 
-20.5122 54.1487 0 
44.1988 -8.52369 0 
5.37237 -16.4098 0 
-29.3509 32.4084 0 
-19.3438 -0.290296 0 
12.9403 -8.47652 0 
-24.8226 43.082 0 
-29.9695 -23.7481 0 
48.2138 6.79092 0 
14.2732 20.2834 0 
-59.032 14.2953 0 
-36.6569 -24.5624 0 
-35.2541 21.967 0 
-32.0878 -4.48849 0 
27.1811 -42.2572 0 
-32.8451 20.3035 0 
-22.6865 -22.2816 0 
16.3779 -29.8787 0 
54.6565 20.0313 0 
-37.5926 -36.9892 0 
-13.7663 42.1737 0 
-1.6595 13.6517 0 
-41.3863 -5.20342 0 
-7.53614 4.27113 0 
-14.7494 -37.222 0 
-22.6526 26.4862 0 
-10.2698 -26.447 0 
-50.1854 27.6389 0 
-38.2933 -47.1671 0 
-45.802 36.929 0 
-15.2277 25.8338 0 
-31.281 17.1079 0 
29.1918 -24.4877 0 
50.523 -27.6816 0 
-28.3378 33.4035 0 
0.455222 -56.1666 0 
-6.61527 -34.1215 0 
-32.8393 28.6759 0 
-42.0667 41.5178 0 
-28.1511 -33.0166 0 
-35.3952 -35.5848 0 
-7.45445 27.1284 0 
33.216 21.0127 0 
37.8207 13.5087 0 
-0.117569 -0.472674 0 
-0.530816 -14.8163 0 
-14.5275 -35.3823 0 
-45.8549 -0.799574 0 
15.1523 40.0563 0 
2.39829 -14.255 0 
-54.0741 -21.6439 0 
23.606 -26.8523 0 
0.138238 -25.3335 0 
-8.7403 8.05316 0 
-29.7542 -53.5965 0 
-43.6881 6.01808 0 
-19.3047 18.3985 0 
-51.9645 22.8772 0 
-19.1144 -48.3764 0 
-48.821 26.3108 0 
-21.1751 11.3561 0 
27.3519 17.2623 0 
-47.3654 -39.3614 0 
-6.6653 23.9456 0 
29.5187 52.43 0 
39.7194 -11.1265 0 
-4.60619 2.94779 0 
14.0411 -47.5929 0 
36.9919 -0.244406 0 
11.8779 -6.00448 0 
-27.3281 1.30668 0 
-34.9713 -17.8559 0 
-31.472 -37.7041 0 
-59.8663 -10.8608 0 
-3.68556 53.9446 0 
26.5853 -18.9921 0 
51.5411 25.4674 0 
33.2243 -15.2171 0 
-16.0609 -53.5032 0 
-39.9833 32.7617 0 
-35.1415 0.0219073 0 
-12.3049 -49.1344 0 
-16.677 9.16475 0 
23.1428 59.0971 0 
8.01343 15.6076 0 
5.30375 46.0867 0 
25.4621 18.8502 0 
20.4565 13.1835 0 
-47.3183 -1.78985 0 
-25.4906 -36.7946 0 
44.2668 -39.426 0 
12.7968 57.9036 0 
-50.873 -29.6162 0 
-31.4106 -5.49213 0 
26.3324 -23.22 0 
23.4726 37.0315 0 
47.1389 34.7409 0 
-29.227 -24.3091 0 
44.7581 -19.2969 0 
30.1093 13.0672 0 
28.51 44.8262 0 
-28.083 -16.9951 0 
18.1193 48.1654 0 
-25.7915 21.0906 0 
5.33281 10.7612 0 
12.8111 -20.4769 0 
36.1227 -48.9963 0 
-30.4291 10.0605 0 
39.2778 38.3821 0 
-14.7375 -0.918343 0 
-41.0888 -5.94151 0 
-30.2403 -28.5618 0 
4.70771 -5.23494 0 
-14.7934 22.6823 0 
-13.3698 55.4497 0 
-21.1004 48.8968 0 
54.0354 -20.9101 0 
18.7602 -38.0098 0 
30.7539 5.51574 0 
-7.34211 -56.6662 0 
-17.3839 -14.8251 0 
-45.9997 -17.9359 0 
-36.4848 -36.6013 0 
-54.7314 -14.2803 0 
2.32849 -61.9957 0 
-7.59119 -57.3709 0 
33.4967 -4.79648 0 
-49.1246 17.0147 0 
2.06581 26.6431 0 
-8.86094 -33.3604 0 
-26.6502 -42.0167 0 
-26.9773 -38.3991 0 
-58.4737 17.1655 0 
-9.59077 45.495 0 
13.6463 6.80035 0 
-33.4973 28.2768 0 
-37.6672 -38.086 0 
24.741 29.9112 0 
35.2944 49.8398 0 
6.50521 56.639 0 
8.45155 -16.6325 0 
-25.6127 33.0752 0 
-48.7422 -13.9393 0 
11.8134 -42.3757 0 
26.1711 -49.4245 0 
-36.2267 -41.5755 0 
4.98616 -36.0662 0 
-27.4612 -41.479 0 
21.5 -37.3173 0 
-9.07793 -40.9971 0 
53.1931 -11.0103 0 
0.0804741 -15.2392 0 
26.8269 -18.4571 0 
-2.55251 49.0967 0 
51.1498 -13.8072 0 
9.42218 24.6128 0 
-23.5749 -54.6763 0 
9.24643 -14.1077 0 
-7.28427 -4.47557 0 
-25.1893 -49.2263 0 
-5.67603 -4.08248 0 
-32.9689 34.7054 0 
19.6539 -5.91408 0 
3.37935 -9.51281 0 
3.57228 52.4807 0 
15.4218 1.0809 0 
-24.5967 -54.6471 0 
-2.96288 22.8394 0 
[...]
<CellData Scalars="wall variable 0">
<DataArray type="Float64" Name="wall length" format="ascii">
3.48115 6.64316 4.61452 1.49237 3.75925 0.448517 4.55077 0.70454 5.28717 10.7542 2.41494 1.27801 1.35648 4.44421 1.966 5.37219 1.3482 7.21848 0.168004 1.64312 3.99119 3.5752 1.03816 5.43937 5.08664 1.92032 2.97102 4.46599 4.34723 3.40544 6.75098 3.58853 5.42121 4.10889 0.70392 4.43192 5.89383 1.58103 5.61639 5.72526 4.12383 5.31991 4.16602 4.03666 0.368754 5.52434 0.622869 4.27672 9.24708 1.75488 2.95599 4.26803 1.04316 2.41187 0.953459 7.77627 4.96395 1.04316 3.66759 0.966468 1.88896 5.76799 3.02788 7.32851 2.35825 2.542 1.95096 1.30852 3.19514 3.2464 1.35705 3.92567 3.22766 5.6435 2.86965 5.55324 3.78801 0.797368 3.68595 1.36729 2.5598 1.08581 5.35726 2.63658 7.1752 1.98558 2.74165 1.65954 1.75437 3.227 6.87874 3.59788 6.22827 6.81109 1.96952 0.355822 3.69975 3.48139 3.04643 0.377764 7.32399 3.01907 2.67085 1.9167 4.31419 7.26121 1.64312 2.45341 2.92052 7.89628 0.77897 10.6961 1.2077 6.6196 0.373452 3.23912 4.12089 0.995322 1.45521 2.22984 0.248262 5.64658 0.626923 4.28302 2.87945 4.84599 2.23688 2.31079 2.93497 0.648101 1.28933 0.626923 6.97586 5.05479 2.10223 1.12555 2.83416 5.72102 1.8328 2.0214 2.0846 5.45661 6.82056 1.63877 5.61149 0.963233 2.86213 1.8328 0.237903 6.4819 4.22224 0.775555 3.60613 1.89902 2.69851 4.81452 0.850026 5.02119 0.360304 2.37689 1.8685 7.56648 1.61292 0.62504 7.24051 0.70454 3.86155 0.44937 1.49237 4.99016 2.84449 7.25608 2.24387 4.43139 2.43123 3.26386 1.02228 5.25383 1.57623 1.00106 8.22384 2.20432 6.89476 2.74261 0.902874 2.87677 2.79997 1.74184 1.02012 1.15777 7.03444 2.45341 0.168004 0.152785 5.07859 2.14473 0.372744 1.83907 0.267714 1.61383 7.08708 0.471471 0.584635 3.02183 1.28828 6.12059 3.65454 3.60053 4.25542 5.01054 2.7098 1.61136 0.48727 0.926189 5.25383 8.88442 2.42348 2.05652 7.10499 0.587959 6.4835 0.213694 1.00421 2.07248 5.35726 3.40538 7.07388 0.46449 7.83435 3.17758 1.36729 7.68401 1.28933 5.36525 3.98136 5.62096 0.926771 4.28302 2.02903 1.23806 7.63601 0.421438 0.553143 1.141 3.50606 5.22663 1.03241 1.89497 4.33942 1.27992 3.32516 2.46001 1.03241 1.16595 4.12383 4.16229 0.941553 4.33586 2.01784 2.33144 6.3892 5.03642 0.704314 4.80635 1.23931 8.2108 3.05429 4.59007 0.514406 1.39352 3.2104 5.10288 3.56047 3.73365 2.39191 1.95096 5.89806 0.967971 5.7713 0.768004 5.58509 0.19579 5.01025 4.45688 1.37236 3.96101 0.525642 5.7991 4.88566 2.00913 4.71049 2.18391 1.83897 2.76795 0.296894 2.65515 4.00597 5.46031 1.43792 6.76919 0.603531 0.55784 7.77627 2.37109 2.43123 2.67009 2.37444 1.76624 0.503927 5.50836 4.30257 1.14977 0.131692 5.91046 0.827448 9.66506 0.608357 2.62892 5.65177 1.98558 2.55267 0.972624 0.909704 1.76974 3.01523 1.86232 5.74391 4.42016 5.01054 0.737288 3.88243 2.59479 3.01849 2.57067 0.601189 5.34074 1.74184 8.17148 0.36744 5.04555 1.62184 2.18746 0.602888 1.24629 0.439498 2.33144 8.01162 4.55307 3.82658 2.03078 7.84861 2.96706 6.45185 3.71104 1.70442 1.76261 1.85918 1.65013 2.17966 0.609104 7.32399 0.30495 1.90372 3.71104 0.589406 2.4846 0.522134 1.9167 1.75196 0.823735 0.90931 2.24971 4.96276 1.12839 8.1672 5.03642 1.04932 3.69808 3.56639 5.2023 2.42737 9.45838 2.74261 0.968008 1.59175 5.55711 4.59381 6.21539 3.51888 1.46107 1.13362 0.487773 1.41982 3.75888 4.67113 1.00783 1.94655 6.75727 1.16567 6.48555 3.2464 1.97203 1.57358 2.9522 1.05044 0.155819 3.01849 0.925376 4.27626 0.609683 1.65013 9.34472 3.16124 0.675115 0.739657 6.58561 1.847 1.13362 7.04387 0.730649 7.42897 8.95555 1.20921 0.54951 3.17828 1.52649 7.16238 0.849727 0.636995 2.24971 3.86152 0.429382 3.98797 3.42463 2.61688 2.8823 0.953024 6.31033 3.04643 3.32608 0.369798 5.71158 7.87633 6.61265 0.410349 4.95996 0.323426 6.12528 2.3966 6.93892 0.278332 3.9223 3.96101 2.64775 6.73875 0.739657 5.38731 3.78273 1.18157 6.78108 1.46294 2.70564 2.90244 6.21194 0.278332 0.126069 9.21944 0.706795 2.83014 0.909349 7.76957 2.28798 4.06252 1.03125 6.3892 0.439498 4.1631 1.72122 0.627828 1.87539 5.21862 0.63659 4.19821 1.01163 8.02877 3.17362 7.72996 0.449971 1.00421 8.76544 0.553143 1.7684 2.37421 1.05398 3.353 0.623746 2.72429 0.303231 5.57389 2.37349 1.05398 2.79933 1.87923 3.98712 1.32777 6.4957 1.18963 6.75098 0.705793 0.275762 2.47768 2.49782 2.77946 2.41219 4.47914 4.95152 3.51191 7.02805 2.31352 2.35825 0.263025 0.742535 3.81984 4.03668 7.57732 1.03816 5.24177 0.850026 1.80894 0.905523 1.87539 0.311809 4.34723 0.994335 4.55307 0.5059 5.6735 3.43423 0.875441 6.18286 1.8912 2.15121 2.87677 8.38433 1.05044 9.40345 0.231537 7.86198 0.909704 4.42185 2.61688 5.04468 1.55421 6.74229 1.39352 2.75178 6.4835 1.61273 1.84489 4.79737 2.13824 3.35508 5.81144 0.514406 8.35538 1.141 8.76544 0.213694 2.75178 5.56637 4.94349 1.08696 6.3976 6.78108 1.26794 4.58824 4.03136 1.81353 3.82034 0.525642 3.9223 2.28798 4.0456 4.64793 0.627828 3.43252 2.76886 7.02805 0.389157 3.61035 0.457395 3.48115 5.18407 1.335 2.62806 0.600067 2.67883 7.63601 3.37059 4.092 3.89189 0.419093 7.11865 2.9123 3.7779 4.95996 0.442051 0.388914 9.86756 0.381099 6.31033 3.48115 2.7098 0.44874 3.17262 1.27992 3.87503 5.57497 1.18965 6.16617 2.04219 2.77606 0.995192 1.4141 0.586459 4.19821 7.71401 2.40882 3.61035 2.27106 2.37689 8.79225 5.1934 2.35113 0.584635 4.35989 0.376118 5.99009 2.53401 2.24904 1.73247 3.33624 0.487773 0.624729 5.87161 1.4601 5.76799 0.760416 5.23212 5.1934 0.59717 4.25663 6.86984 0.602888 5.55083 3.17271 0.430729 4.45688 4.74998 0.357244 2.10339 4.84599 0.318123 2.15435 7.56272 0.589406 6.45185 1.5792 3.88779 1.94655 1.16079 2.84449 2.37109 0.953459 6.42737 3.74113 0.623746 4.22886 5.1707 0.429382 6.66965 4.82643 5.62366 0.494514 2.4285 6.8183 2.97495 5.74391 1.66759 3.12645 0.475892 1.54102 0.995322 0.68163 2.71901 3.30352 0.46449 0.456011 1.92095 2.65515 8.63856 3.71745 7.07222 1.98446 5.13253 3.14664 0.796941 4.89303 3.95362 3.87503 4.33942 2.46683 4.01904 5.37219 0.453507 4.76995 2.47314 4.02789 3.80547 3.92064 3.39021 1.78638 4.54673 6.00617 6.96023 2.96591 1.7817 2.697 4.20645 1.15777 3.7503 1.54355 6.29737 0.817807 10.7489 0.600405 2.95091 3.46997 7.05929 0.373825 6.75674 1.36705 0.589112 4.99016 4.61452 6.12196 2.12985 3.22995 1.41516 10.2978 4.16683 6.4819 4.55169 3.01523 4.74981 5.52434 4.89969 1.09941 5.28581 1.8074 6.65114 2.00292 0.817807 1.58855 4.0373 0.358374 6.74511 2.17966 3.31612 1.16372 3.96673 2.59903 5.55711 0.335122 3.01628 6.6196 0.579591 3.3443 5.7991 3.43252 1.72122 5.12488 4.25663 1.70162 2.38861 5.85885 0.356275 1.55421 6.81862 1.89287 5.07799 4.58824 0.95434 0.866461 2.92284 3.33219 1.20938 3.19432 3.35125 1.37109 6.94697 0.426898 4.88566 3.3443 1.19637 2.47314 3.68476 2.72641 5.54947 1.75276 1.83704 0.421825 2.38861 1.20011 0.73428 2.64775 3.39046 5.80417 7.16238 1.50353 7.42212 2.12985 0.489736 3.70363 5.62366 0.630278 2.04277 10.6472 0.374722 2.697 2.89878 5.42286 4.16458 4.97056 3.30774 1.86264 1.94119 1.34133 0.909349 1.11875 1.12839 3.32856 3.61985 2.56683 0.844082 8.01679 0.866461 3.57918 3.14664 1.73562 2.83416 8.55312 0.923983 9.41909 1.45521 1.54102 8.96908 1.73247 0.662199 8.27564 1.95761 0.684205 3.75365 4.04053 1.86264 1.90851 5.03093 5.85885 0.421825 8.01951 0.62504 9.59884 0.931395 0.503927 1.87571 6.57496 3.56639 1.10119 0.311809 8.02877 8.98692 0.705793 3.40544 4.38812 0.664521 3.36087 3.58305 0.419093 1.65826 4.44465 0.434692 1.65109 1.68472 4.94349 0.610267 1.36128 2.68477 4.65429 1.26111 5.88676 0.684968 2.47441 1.28828 7.40931 1.30806 0.948195 3.27457 0.448517 0.650415 2.79953 3.37059 0.387096 5.3631 6.06184 6.54315 1.1866 3.7503 0.267714 2.86955 2.24592 2.90133 3.72856 5.61963 5.51869 6.79117 0.226179 4.30947 0.719149 3.40944 5.91171 2.53401 3.09322 2.94874 0.552505 7.31744 3.49442 1.74111 0.77897 2.58556 3.59788 0.780968 0.355822 9.69492 5.39149 2.86955 3.25544 0.780968 0.456582 7.48698 2.95599 0.905548 3.00062 2.63658 2.07248 0.946111 0.344498 0.601189 6.6223 2.22984 2.10339 6.12669 0.624729 6.75727 3.88779 2.96091 1.20581 3.61719 6.13121 3.46185 3.05019 0.3661 6.61265 1.02966 1.05834 4.20645 0.374722 3.29756 0.872534 2.92052 7.03444 1.95111 0.30564 5.72526 0.990978 0.843198 3.83064 2.96591 0.467486 2.13824 2.20743 6.76919 1.106 2.23688 1.13265 3.46706 2.15412 5.23162 2.91099 4.21461 1.46294 3.82034 6.66635 7.04387 1.46107 3.02862 0.730798 0.48727 7.11214 0.373452 3.01628 9.42436 3.31612 0.522134 2.78217 4.28847 0.816768 5.18489 3.99119 10.6961 1.74111 2.72173 2.41336 3.20279 1.96952 0.288686 2.04277 2.58401 4.89969 0.368754 0.705775 0.645063 9.69492 0.394759 7.16805 3.65759 7.53322 1.03583 4.97246 6.70754 2.93497 1.1052 1.702 3.2195 0.224344 1.87571 5.91046 2.35714 7.10499 2.89878 6.29737 0.927081 5.14108 1.8074 0.619181 2.19893 0.450666 0.600405 5.15032 1.63877 4.16683 1.76974 7.86198 4.46827 4.33586 1.36636 1.80762 4.75897 0.476643 2.75998 2.63802 0.296839 3.60053 3.42409 0.404315 10.1397 1.10735 4.89518 0.754243 2.42737 2.59903 1.2077 9.41909 0.797368 1.80994 4.17623 2.00913 1.92095 8.39137 3.68476 4.76995 4.18719 1.65954 6.43279 1.80894 7.56648 2.59409 2.48417 5.0316 2.70814 4.89518 3.72663 1.35705 6.48555 1.1866 0.624125 9.89913 0.963233 0.70351 8.19937 0.927081 1.54355 0.946111 7.07388 3.61471 1.92504 5.81946 2.78349 2.15412 1.81353 2.66532 0.796941 7.27839 4.53338 5.57389 1.14079 1.69964 3.98136 1.11525 5.18844 2.41583 6.78667 2.91093 3.60613 1.16372 5.18489 4.28454 0.401392 3.0733 3.92211 3.82658 1.8912 3.96393 1.57358 5.83074 1.16319 7.96419 3.32608 3.48139 2.9636 0.949513 3.7171 1.47049 1.90851 2.78871 0.839832 5.23162 2.78349 1.4611 4.29154 5.3631 2.67965 9.14485 0.784569 1.21246 7.24661 3.17828 8.06747 0.754243 2.70814 1.16567 8.38433 0.902874 9.45838 4.14801 3.46185 3.21632 7.72996 2.20569 1.98446 3.89352 2.5598 0.455092 8.27564 0.636995 7.3582 3.00029 3.32856 4.96276 0.381041 9.86756 3.06624 3.80547 2.25658 2.4912 1.62874 2.67009 4.43139 1.9466 0.624125 6.54315 4.5538 6.79669 3.61985 3.00029 2.05232 3.30129 1.4141 7.14469 3.83177 6.78667 3.21508 4.52063 1.02012 5.34074 6.12669 0.357244 3.05504 4.26815 4.65429 2.30606 7.02214 1.22638 1.7411 7.26121 3.024 3.67499 5.7713 0.509448 4.22886 3.353 2.37349 0.824992 6.21539 4.35989 0.471471 4.03642 3.46306 5.19047 1.702 7.45096 1.84045 2.66056 1.52151 4.56335 0.30495 0.377764 7.87633 0.994889 0.885777 1.84045 2.55216 6.54205 2.82796 0.399634 3.58853 0.519117 4.5538 0.983417 5.18969 1.52649 4.63674 6.58561 6.73875 0.73428 3.06195 1.81549 3.51977 2.66287 0.558653 6.30995 6.60613 6.81862 1.61273 0.587959 2.35714 0.131692 1.47395 6.8183 6.62645 4.62936 2.58556 7.89628 0.872534 3.75052 6.22827 0.237903 6.82056 1.17502 1.77264 1.66759 1.86232 4.55169 0.372744 3.42451 4.62936 0.579857 1.76624 8.54621 0.223029 0.70351 5.61149 5.15032 10.7489 2.00292 4.06949 5.18969 2.43413 3.39046 1.18157 1.53231 0.489736 6.12196 0.754724 1.94119 4.04053 6.14912 0.387096 7.11865 3.58305 4.84707 0.756934 2.67965 1.71821 9.14485 0.756934 3.70279 0.730649 7.24661 1.89902 2.91093 3.83177 1.81169 4.96354 5.19913 0.457395 2.40882 0.269343 3.96673 3.92211 2.33823 0.373825 6.64316 0.824992 6.4957 0.14931 1.05609 4.50185 3.02862 3.51888 2.48417 2.89258 1.70208 1.4611 1.71821 1.21246 1.74228 5.26824 4.24401 6.43034 3.73365 0.749036 2.14133 0.811871 3.75888 8.92335 3.12645 1.77264 3.69272 0.949513 7.27839 2.46683 1.89497 4.03666 1.22353 1.16079 1.00783 6.05941 2.0846 3.52872 7.25608 3.227 6.50318 0.811871 2.91811 2.95091 0.450666 0.231537 2.78722 0.926189 9.42436 0.335122 1.59175 6.14533 0.250487 1.57623 0.562595 4.89303 2.66532 4.03136 5.07799 1.8527 6.44265 4.17004 0.615495 10.1372 2.04552 0.226179 0.293869 1.5779 1.11525 5.36525 0.648101 6.70754 0.704314 5.2023 6.57496 0.224344 4.15761 2.41613 0.650415 10.7542 0.742921 3.10534 7.06589 1.0288 0.44937 8.73542 0.948195 0.891942 4.47914 2.76886 3.75925 2.71181 3.33219 1.97167 2.56479 0.152785 7.21848 1.11223 2.49782 3.45486 4.22224 0.436443 5.55324 6.65485 6.66965 3.86152 0.90931 3.3619 0.376118 5.19047 1.35473 1.71454 1.8527 0.210964 2.94874 0.378491 3.32516 6.16617 0.130093 4.32846 0.839325 3.03427 3.30352 5.4591 2.1258 7.83435 4.50599 4.58539 4.57408 2.33427 0.394759 0.966468 3.9557 0.456582 5.53307 8.04849 0.545105 4.44421 0.343579 3.04935 1.30852 2.39191 6.43034 1.68031 6.08343 0.412145 1.81549 1.23927 4.86808 1.36705 0.210964 10.1372 5.33345 3.22766 0.384669 3.40944 2.00173 5.46031 3.28129 1.76261 8.52703 3.05019 4.14801 3.17362 0.421438 2.67883 11.3975 2.77946 1.11223 2.86965 3.17758 2.1258 0.240397 8.33167 1.92504 0.925151 3.23985 2.90244 3.543 0.740455 6.23811 2.78871 8.01951 1.83704 4.69078 1.61383 2.17324 0.689179 3.42409 3.65454 4.42016 1.91429 9.92303 2.33427 2.50724 2.5262 0.608357 1.81012 7.16805 1.62184 6.86901 0.313396 0.494875 5.02974 4.00457 1.37109 3.59681 3.22995 7.42212 3.80222 4.17623 2.13501 0.967437 4.91868 4.71049 0.97502 5.4406 4.92739 1.65826 3.89189 2.42348 0.449971 3.21632 6.13121 7.19387 0.12863 9.78864 1.34655 5.57497 3.95362 0.562595 1.89287 1.88896 8.04849 0.893119 0.740455 1.44493 5.88676 0.654063 0.760416 2.57079 3.80392 2.82796 4.06949 7.53453 2.66056 0.885777 5.04733 0.589769 3.78025 5.84159 0.519117 4.43192 4.64814 2.25707 2.56683 6.79669 0.849727 5.80417 2.43413 0.983417 2.05232 7.3582 4.56335 4.07693 4.30947 2.04552 4.97246 1.75437 4.18719 0.453507 1.966 0.545105 4.24401 6.50318 7.76957 8.01679 0.818645 4.0456 4.69078 1.75276 1.42372 4.03642 7.08708 0.288686 6.81109 3.75052 3.29756 10.6472 0.645837 5.10288 2.44936 3.7171 1.22353 4.16602 2.34562 2.66287 3.59764 3.35508 0.467486 6.96023 2.91099 0.839832 2.17324 6.12059 2.47441 6.94583 2.96091 6.42737 2.41187 4.96395 1.4601 2.44486 2.0815 7.57732 0.769153 2.24592 5.39149 0.645063 2.3776 0.455092 7.1752 3.00062 7.75612 1.95761 4.21461 6.94583 0.684968 1.44493 3.543 2.70564 6.16978 7.11905 1.87923 3.76749 0.356275 5.03093 1.47049 2.44936 3.2104 6.74229 0.683844 2.22467 5.76358 3.98712 7.11905 1.61292 0.589112 4.86808 5.49663 9.59884 2.14473 7.09552 0.977225 0.630278 4.82643 1.47395 3.42451 1.75196 2.67085 1.20456 3.96275 1.14079 0.303231 10.0556 4.70884 5.35906 1.7684 4.53338 1.5779 1.26794 6.21194 3.23985 1.88915 3.71745 3.57918 0.95434 1.02074 0.684205 7.75612 0.905548 1.75488 0.55784 10.1323 5.81946 6.23811 0.893119 5.53307 0.344498 3.95684 0.768004 3.67499 1.59246 0.706795 1.31725 4.58539 1.1052 2.31079 1.106 1.43792 2.00173 1.72271 2.55216 7.45096 2.05652 7.19387 1.05834 0.917837 4.15761 3.2195 3.78801 0.436443 4.81452 1.13122 3.475 2.13501 1.80994 3.9557 3.66759 4.26803 7.48698 0.800333 10.3204 3.36525 9.21815 2.92284 8.55312 1.12555 0.928605 9.21815 1.13664 0.12863 2.00002 0.99614 2.58237 1.08696 1.68472 3.51464 5.4406 2.41219 8.33167 2.16254 2.91663 3.78025 1.21491 1.16595 5.22663 2.25901 3.05429 0.645837 5.31991 3.92064 3.06624 0.388914 5.27519 3.99321 4.77183 1.35473 3.46306 1.42372 5.54947 2.85868 2.8823 4.42185 0.972624 5.72918 1.13664 3.36525 0.912526 2.18431 0.568973 3.66236 9.78864 4.29767 5.48222 2.02903 2.46001 3.03427 6.31257 8.06747 0.54951 1.60904 2.75338 5.14108 8.19937 0.223029 6.65114 3.86155 4.55077 3.27457 8.73542 0.389157 3.51191 5.09955 2.89258 2.59409 1.8685 2.27106 2.32004 6.3976 2.58237 3.47971 3.10534 0.509974 5.0316 5.26824 2.4924 5.21862 0.905523 7.06589 3.47971 0.99614 8.04787 0.275762 8.98692 1.01163 0.586459 3.30129 2.41583 6.37691 0.59717 5.99009 3.3619 4.56453 1.20581 2.44486 1.97167 6.94697 3.80222 1.50353 0.977225 4.44751 2.68477 5.91198 2.9123 0.381041 0.605771 2.75237 2.30606 0.343579 1.35648 4.42881 0.737288 4.25542 0.296839 7.32471 0.610053 1.58103 1.92672 2.78217 2.4846 7.56272 1.16953 4.27672 4.54362 3.46997 2.91811 2.14133 0.426898 6.43279 2.74165 5.65177 1.57661 2.3966 1.37236 1.25917 2.03078 5.83074 1.97203 3.19514 2.85474 0.843198 6.56441 6.14533 0.968008 6.89476 3.04935 7.32471 2.63802 2.72646 3.02788 2.97102 2.10202 1.87433 5.02119 5.24177 0.654063 7.40931 3.02183 2.35113 5.23212 3.024 4.31419 8.1672 1.11875 2.83014 1.59246 4.65215 0.401392 0.418417 1.84489 3.70623 6.08343 3.68595 8.39137 0.456011 7.68401 4.95152 0.891942 1.30806 4.29154 1.70208 5.09955 0.622869 4.74981 0.71602 1.58855 7.05929 4.54362 0.577513 5.72102 1.73562 5.13253 2.20569 0.662199 3.30774 3.14277 0.585065 3.76749 2.79933 2.37421 5.35906 0.488706 3.17262 2.12513 3.65759 1.81012 9.66506 1.10119 3.69808 1.27322 0.509974 0.742921 5.28717 7.24051 3.65716 5.89806 2.542 2.31352 2.0815 3.70623 5.81144 3.59764 3.51977 0.412145 4.59007 2.25901 3.50606 8.35538 1.98765 8.22384 9.0219 1.68132 0.19579 2.25707 4.87891 4.06252 4.64793 0.818645 0.844082 1.69349 3.88243 4.42881 1.27801 8.07865 3.69272 1.17502 5.45661 6.05941 4.67113 0.44874 8.88442 1.02228 2.11482 7.53322 2.12513 1.847 4.63674 3.98797 5.1707 0.509448 4.59381 2.72646 2.75998 6.18204 0.263025 7.32851 1.04616 5.08664 3.35738 5.04733 0.994889 5.71158 1.09941 2.58401 5.42286 2.19893 6.82938 5.07859 2.56479 4.44751 7.09552 5.28581 6.82938 0.619181 4.0373 0.71602 3.70363 6.14912 3.75365 1.02074 2.80562 0.494514 3.70279 4.84707 3.36087 1.54334 2.27378 7.42897 0.246085 9.34472 1.85918 3.28129 4.00597 2.20743 1.0288 8.04787 2.00002 0.97502 4.092 2.79953 5.01025 1.68132 1.06102 3.21508 4.74998 0.816768 4.86956 1.95111 4.79737 0.418417 4.28454 3.23288 2.9636 3.69975 0.609104 6.74511 3.09322 5.87161 3.61719 4.56453 0.378491 4.30257 1.50725 6.30995 0.461403 5.4691 2.33823 3.0733 4.65215 1.68031 6.75674 0.926771 5.6283 1.20456 3.01907 1.7411 0.967971 0.318123 2.87945 0.705775 9.24708 1.16953 0.749036 3.56047 3.65716 2.3776 1.41982 3.33624 8.96908 0.475892 8.92335 4.34306 10.0652 1.36636 0.941553 1.20716 4.10889 4.44465 4.92739 3.51464 1.26111 4.26815 4.1388 1.02966 6.12528 2.71391 4.80635 2.41613 0.917837 1.03583 2.11482 3.26386 1.98765 5.58509 3.95684 4.50599 1.9522 8.07865 2.41494 4.01904 1.19637 0.579591 0.430729 1.04992 4.16814 1.01185 5.18407 1.23806 5.48222 0.384669 3.92567 3.72663 1.10735 0.923983 2.24904 5.91171 1.61136 3.48115 0.953024 2.85868 1.85335 3.23912 7.11214 0.3661 11.3975 0.600067 3.32506 4.61155 5.27519 0.442051 0.410349 0.269343 8.79225 0.360304 1.87433 5.21108 1.16319 3.23288 0.358374 0.195555 4.17004 4.44439 4.03982 0.461403 0.558653 2.34562 6.00617 0.5059 7.84861 1.25917 0.990978 5.61639 0.610053 2.15435 0.631541 3.17271 5.45748 0.311832 1.91429 2.59479 1.69349 1.9522 0.931395 5.49663 1.23927 3.06195 1.50725 5.50836 1.83907 8.54621 2.37444 1.62874 6.06184 4.27626 4.66517 3.43423 5.68111 4.64814 0.70392 1.20716 4.16229 1.03125 4.87891 2.57067 0.155819 0.246085 3.46706 3.90376 0.248262 6.6223 3.39021 3.99321 4.61155 1.7842 2.5219 1.52151 5.84159 2.91663 3.00728 0.719149 4.07693 1.85335 5.72918 2.55267 2.97495 4.12089 0.823735 10.0556 2.72429 3.74113 6.65485 1.94857 4.44439 6.44265 1.71454 4.77183 2.72641 1.04932 8.2108 2.56825 0.610267 5.56637 2.32004 1.27322 0.759806 8.63856 0.296894 4.7388 0.683844 6.16978 0.585065 1.14977 5.4691 4.03982 1.94857 1.20011 1.70162 6.60613 1.57661 2.62892 2.5262 3.48826 0.126069 6.93892 3.06052 0.68163 0.759806 3.14277 4.70884 0.293869 6.79117 5.62096 1.69964 3.96275 5.6283 0.994335 4.46599 1.18963 1.21491 0.589769 3.35738 5.43937 0.877321 9.40345 2.9522 3.96393 6.18286 2.80562 10.1323 0.603531 0.579857 6.62645 2.4285 1.06102 9.0219 1.00106 0.250487 6.56441 2.20432 4.52063 2.85474 5.6435 5.33345 0.615495 0.195555 1.7817 3.83064 1.9466 2.24387 3.52872 2.0214 2.86213 9.89913 2.47768 6.37691 5.18844 0.775555 3.45486 0.827448 6.87874 2.78722 5.04468 3.42463 0.381099 0.488706 1.88915 0.925151 3.61471 3.40538 1.08581 3.89352 7.07222 3.00728 2.16254 0.240397 5.4591 2.71901 3.06052 5.51869 1.13265 6.97586 5.64658 3.90376 0.925376 8.17148 2.79997 2.15121 0.877321 0.875441 4.66517 1.36128 2.56825 1.23931 2.71391 0.323426 3.7779 5.91198 3.48826 2.50724 4.57408 1.31725 9.21944 1.72271 8.52703 1.70442 1.90372 6.54205 5.12488 4.1631 1.24629 6.86984 5.55083 2.18746 4.00457 0.145733 5.45748 0.576117 7.71401 0.63659 2.4924 1.74228 0.784569 6.31257 0.657922 4.28847 1.92672 5.89383 0.30564 4.86956 0.609683 5.68111 5.6735 0.631541 1.5792 2.96706 5.21108 2.10202 1.92032 1.04616 0.369798 7.96419 
</DataArray>
<DataArray type="Float64" Name="wall variable 0" format="ascii">