<VTKFile type="UnstructuredGrid" version="0.1">
<UnstructuredGrid>
<Piece  NumberOfPoints="    2499" NumberOfCells="     417">
<Points>
<DataArray type="Float64" NumberOfComponents="3" format="ascii">
-1.1311 -6.11567 0.0
-2.20017 -7.68518 0.0
1.13553 -17.1757 0.0
2.16153 -16.8523 0.0
2.23747 -16.6739 0.0
-0.527061 -6.05033 0.0
-0.921525 -6.02537 0.0
19.953 18.7781 0.0
22.2043 15.3723 0.0
22.8666 15.4111 0.0
28.126 17.0165 0.0
28.5344 18.232 0.0
40.787 -29.3653 0.0
37.769 -31.3183 0.0
43.1861 -34.123 0.0
44.0498 -34.0977 0.0
45.0582 -33.652 0.0
44.1772 -28.288 0.0
-5.74509 26.9142 0.0
-8.33263 24.3463 0.0
-0.551118 25.1806 0.0
-0.281425 25.4777 0.0
-0.975915 26.6897 0.0
-3.35366 28.6006 0.0
-24.6454 -33.9697 0.0
-24.1019 -31.3535 0.0
-24.1786 -30.5123 0.0
-24.9751 -29.6181 0.0
-28.787 -29.1078 0.0
-29.1293 -30.0565 0.0
-29.638 -34.8504 0.0
20.2383 -31.9898 0.0
19.4283 -31.6252 0.0
8.11435 -34.3121 0.0
8.73829 -35.0849 0.0
11.6021 -36.943 0.0
15.0165 -35.4445 0.0
-52.4056 -17.3115 0.0
-51.9715 -17.2014 0.0
-51.9825 -11.7103 0.0
-53.1807 -9.06926 0.0
-53.9686 -7.79094 0.0
-55.9796 -10.3148 0.0
24.1868 -27.2464 0.0
22.3577 -24.6805 0.0
18.0505 -27.3651 0.0
18.0627 -29.2141 0.0
20.1588 -31.0119 0.0
20.9687 -31.3764 0.0
21.5897 -31.4111 0.0
47.0115 7.61016 0.0
47.0176 7.22889 0.0
52.8878 10.2306 0.0
52.9954 13.9444 0.0
52.6512 14.0364 0.0
49.3684 13.9634 0.0
-40.8996 4.06119 0.0
-40.315 5.50299 0.0
-41.1085 7.42778 0.0
-43.0541 8.22653 0.0
-44.9724 8.51804 0.0
-45.449 8.01463 0.0
-45.9371 3.34865 0.0
4.39627 23.5527 0.0
5.60457 22.3096 0.0
12.3627 20.9787 0.0
13.1019 23.4682 0.0
11.9674 24.2939 0.0
4.49641 24.601 0.0
0.00328695 -22.2349 0.0
-0.200342 -23.5187 0.0
-0.0366402 -27.3793 0.0
0.658635 -27.6096 0.0
5.99608 -25.7977 0.0
6.52843 -24.1924 0.0
31.9716 38.5513 0.0
31.2066 40.2599 0.0
30.2954 41.7437 0.0
23.3306 45.7753 0.0
23.1111 45.4937 0.0
23.3284 44.1354 0.0
31.5561 37.6357 0.0
-17.8553 -21.16 0.0
-15.5607 -21.5277 0.0
-13.6512 -17.0717 0.0
-18.0433 -15.8085 0.0
-19.5548 -19.7911 0.0
53.4201 -3.74691 0.0
52.8815 -6.49333 0.0
57.2773 -8.50231 0.0
57.8185 -8.01236 0.0
58.9956 -5.47651 0.0
58.7194 -4.51943 0.0
-36.181 -4.14026 0.0
-36.1864 -4.17164 0.0
-35.5091 -6.67103 0.0
-30.3599 -11.0729 0.0
-29.7492 -10.9172 0.0
-28.8857 -8.98972 0.0
-29.0543 -8.21938 0.0
52.9771 -23.5218 0.0
49.6239 -24.4883 0.0
49.0376 -31.8164 0.0
53.204 -28.5362 0.0
53.192 -24.0516 0.0
24.1145 8.95295 0.0
22.4233 8.24436 0.0
23.0695 5.56277 0.0
23.794 5.16076 0.0
32.1227 5.77497 0.0
32.0276 6.09253 0.0
57.3233 -9.23986 0.0
54.4116 -12.4846 0.0
53.9281 -15.7084 0.0
55.0468 -17.4166 0.0
59.0325 -13.5875 0.0
57.8645 -8.74991 0.0
44.9823 -14.0159 0.0
44.8637 -14.9571 0.0
52.5185 -16.0597 0.0
53.2843 -15.7873 0.0
53.7678 -12.5635 0.0
50.7588 -11.8321 0.0
48.3401 -12.7424 0.0
-51.1032 -3.82073 0.0
-51.4426 0.509506 0.0
-55.5235 -0.283621 0.0
-55.2143 -3.67662 0.0
-53.9427 -4.85185 0.0
-34.5306 26.3906 0.0
-34.0475 24.5218 0.0
-30.3456 24.8226 0.0
-29.9758 25.8451 0.0
-28.9063 28.8347 0.0
-29.3567 29.6739 0.0
-34.7595 27.9551 0.0
-29.0547 31.6114 0.0
-28.7907 30.3787 0.0
-28.3402 29.5395 0.0
-25.4496 32.8152 0.0
-23.135 38.0405 0.0
-23.3387 38.348 0.0
-24.3914 38.3328 0.0
-18.1335 7.95999 0.0
-15.4104 10.8051 0.0
-15.8863 13.8227 0.0
-16.6441 14.403 0.0
-21.7129 12.9585 0.0
-8.49886 24.0399 0.0
-8.79893 23.7586 0.0
-8.45919 20.476 0.0
-2.24926 23.1675 0.0
-1.90111 23.468 0.0
-0.717349 24.8742 0.0
-31.6936 -53.6485 0.0
-30.7515 -53.5441 0.0
-31.5046 -45.8556 0.0
-32.1816 -45.0456 0.0
-34.5389 -50.8431 0.0
-33.868 -51.8498 0.0
-1.33822 -58.4186 0.0
0.00497715 -58.3929 0.0
0.233515 -53.1046 0.0
0.402174 -49.1894 0.0
0.108164 -49.0161 0.0
-3.88253 -50.8024 0.0
3.92141 16.0592 0.0
0.389062 15.4489 0.0
-2.3797 8.81567 0.0
1.84732 11.1724 0.0
-13.2468 34.1744 0.0
-16.3343 35.149 0.0
-21.3738 27.3737 0.0
-20.1724 27.9441 0.0
-13.1306 33.6546 0.0
-37.1459 -38.666 0.0
-35.1595 -41.3816 0.0
-32.3743 -42.372 0.0
-30.1933 -40.4736 0.0
-31.3235 -37.3103 0.0
-32.3034 -36.5619 0.0
-33.1752 -36.449 0.0
12.3336 -55.0107 0.0
14.4997 -49.7555 0.0
14.296 -49.1719 0.0
9.08848 -49.6883 0.0
6.63504 -50.9035 0.0
-29.4194 25.7153 0.0
-29.7892 24.6928 0.0
-28.0476 23.4642 0.0
-24.4339 24.3634 0.0
-23.7091 25.8314 0.0
-23.4471 28.0398 0.0
-23.6585 28.4251 0.0
13.1293 32.9566 0.0
16.1412 30.8807 0.0
16.7407 37.1244 0.0
14.1135 37.521 0.0
13.5871 37.4143 0.0
12.747 35.5963 0.0
9.42197 59.1437 0.0
8.30904 59.5767 0.0
4.1411 57.3641 0.0
-2.03355 52.4148 0.0
0.107514 50.1081 0.0
0.4669 49.9862 0.0
16.0866 -20.5097 0.0
16.1952 -20.5705 0.0
28.5349 -15.9765 0.0
28.6912 -15.2177 0.0
28.2231 -14.761 0.0
17.2376 -18.3652 0.0
17.0325 -18.5037 0.0
15.2571 -19.7803 0.0
-39.6849 -6.37482 0.0
-37.0177 -3.7741 0.0
-37.0123 -3.74272 0.0
-37.0127 -3.45752 0.0
-41.632 -1.82413 0.0
-44.0226 -2.64974 0.0
-44.313 -3.28106 0.0
-4.62768 53.8722 0.0
-4.40542 53.8476 0.0
-0.134689 58.9499 0.0
1.44993 61.7418 0.0
0.721858 61.9024 0.0
-2.88273 61.4013 0.0
-40.7235 -23.4448 0.0
-42.0329 -21.7102 0.0
-48.0028 -22.1352 0.0
-44.7794 -26.0724 0.0
-35.7691 41.8912 0.0
-36.8672 41.4464 0.0
-37.0449 31.8519 0.0
-36.4109 30.7045 0.0
-35.6309 30.3583 0.0
-34.368 32.3811 0.0
-34.3303 37.8951 0.0
-34.745 41.5313 0.0
-34.833 41.5992 0.0
14.8428 51.709 0.0
17.8117 52.6193 0.0
16.5273 59.3284 0.0
13.3617 58.6765 0.0
12.6418 56.4412 0.0
-12.2676 -46.3654 0.0
-15.83 -47.2326 0.0
-16.2064 -47.4246 0.0
-16.0826 -48.6616 0.0
-13.818 -55.1938 0.0
-12.6673 -55.2137 0.0
-50.3642 21.7374 0.0
-50.902 21.534 0.0
-52.7608 19.1984 0.0
-52.0767 15.094 0.0
-49.0646 14.7971 0.0
-48.7464 15.4323 0.0
42.6619 18.0782 0.0
44.2097 11.8581 0.0
46.5646 7.82582 0.0
48.9215 14.179 0.0
48.8581 14.336 0.0
-27.8122 -21.7755 0.0
-29.8997 -19.2073 0.0
-33.2386 -17.6317 0.0
-34.5457 -24.6697 0.0
-32.4142 -25.4794 0.0
12.3017 56.1693 0.0
8.82556 53.829 0.0
12.0781 49.9578 0.0
12.9624 49.8794 0.0
14.5028 51.4371 0.0
33.235 4.14397 0.0
31.912 2.38515 0.0
28.5939 -6.23419 0.0
32.7586 -4.06205 0.0
34.2519 3.73794 0.0
17.8029 -12.3137 0.0
15.6575 -13.3697 0.0
16.6328 -18.2043 0.0
16.8379 -18.0658 0.0
21.0618 -13.4822 0.0
40.8161 8.57181 0.0
40.4961 5.35261 0.0
41.6962 4.18749 0.0
42.8546 3.94268 0.0
46.085 5.58128 0.0
46.3177 6.83577 0.0
46.3115 7.21704 0.0
43.9567 11.2494 0.0
10.8258 30.2995 0.0
11.9385 31.0757 0.0
12.6646 32.737 0.0
12.2823 35.3767 0.0
10.0425 34.3663 0.0
6.26356 31.1195 0.0
27.1527 -25.7275 0.0
24.6341 -27.3883 0.0
22.0369 -31.553 0.0
22.8356 -32.2886 0.0
25.9991 -32.172 0.0
28.4955 -29.4649 0.0
47.2778 22.0568 0.0
47.8275 19.9818 0.0
49.3285 16.215 0.0
55.21 22.4834 0.0
-45.8141 11.9822 0.0
-46.9352 12.627 0.0
-52.549 8.96679 0.0
-45.9201 8.44205 0.0
-45.4435 8.94546 0.0
-22.4345 39.7344 0.0
-22.6142 39.1254 0.0
-22.4106 38.8179 0.0
-19.3848 38.4282 0.0
-18.4547 39.5093 0.0
-16.8598 42.9086 0.0
-15.1909 47.6053 0.0
4.54302 -54.5844 0.0
4.5581 -50.8727 0.0
3.5943 -49.5345 0.0
2.30544 -49.2881 0.0
0.794198 -49.0195 0.0
0.625539 -52.9348 0.0
-42.8445 35.2419 0.0
-40.9276 35.7087 0.0
-40.0393 41.7747 0.0
-41.1546 43.2078 0.0
-42.0048 43.5421 0.0
-44.1874 43.1966 0.0
-0.0595119 24.7863 0.0
-1.24328 23.3801 0.0
-0.034863 17.0819 0.0
0.0259223 17.0917 0.0
3.59646 23.4663 0.0
3.69659 24.5145 0.0
3.62641 24.6338 0.0
2.94932 25.1885 0.0
0.210182 25.0834 0.0
31.3794 33.2105 0.0
31.0736 32.2968 0.0
36.7944 26.302 0.0
37.9604 25.9593 0.0
37.6994 27.1112 0.0
34.6729 32.9621 0.0
32.6644 34.2209 0.0
52.8499 1.61386 0.0
54.5129 2.84041 0.0
60.7914 11.7074 0.0
60.3627 12.4911 0.0
58.3279 11.0751 0.0
54.3193 7.8659 0.0
51.8867 3.2832 0.0
10.5017 -10.9523 0.0
11.722 -14.25 0.0
12.3604 -14.7523 0.0
13.5731 -13.8014 0.0
16.3319 -7.40614 0.0
36.1078 -4.9946 0.0
36.5612 -3.95933 0.0
36.4175 4.32639 0.0
34.5837 3.78799 0.0
33.0904 -4.01199 0.0
53.4424 -16.273 0.0
52.6767 -16.5454 0.0
46.4225 -19.7499 0.0
53.8924 -20.9667 0.0
54.0161 -20.7512 0.0
54.5611 -17.9812 0.0
25.2852 -42.4803 0.0
25.1666 -41.5061 0.0
20.8649 -38.453 0.0
19.8099 -38.8582 0.0
15.3567 -41.6575 0.0
16.3771 -43.5692 0.0
-10.5444 -23.7249 0.0
-10.4693 -24.785 0.0
-2.51776 -29.9051 0.0
-1.78922 -28.0108 0.0
-7.97246 -22.8738 0.0
-8.84657 -22.194 0.0
-16.282 25.4443 0.0
-18.0286 21.7702 0.0
-17.8564 21.4649 0.0
-16.4467 20.2029 0.0
-13.709 22.498 0.0
-11.3854 27.4921 0.0
-15.6347 26.2249 0.0
55.0878 15.0459 0.0
53.4906 14.0122 0.0
53.383 10.2984 0.0
54.257 8.35382 0.0
58.2656 11.563 0.0
-46.4693 -4.36504 0.0
-45.7554 -4.51017 0.0
-44.9535 -2.95774 0.0
-44.663 -2.32643 0.0
-46.603 1.89532 0.0
-50.0363 3.0968 0.0
-3.32786 -0.0179673 0.0
-3.99236 1.47234 0.0
-7.63808 -0.809674 0.0
-3.10738 -4.05373 0.0
-1.55883 -5.13805 0.0
-1.34926 -5.04775 0.0
40.2424 19.0838 0.0
40.5333 21.3151 0.0
40.0315 23.7538 0.0
39.0318 24.0368 0.0
35.5332 20.8243 0.0
35.241 20.3496 0.0
35.3832 19.6419 0.0
-10.3964 -25.1795 0.0
-10.4508 -25.5455 0.0
-4.51551 -33.2003 0.0
-3.12375 -33.9619 0.0
-2.74684 -32.4384 0.0
-2.44487 -30.2997 0.0
-27.0637 9.88894 0.0
-26.9723 7.29762 0.0
-21.9611 2.2362 0.0
-20.8611 3.17218 0.0
-19.9017 4.15679 0.0
-19.9924 5.04665 0.0
-26.0703 10.6447 0.0
-24.324 -37.473 0.0
-24.7004 -34.5216 0.0
-29.693 -35.4023 0.0
-30.7381 -37.1176 0.0
-29.608 -40.281 0.0
-27.6448 -40.8089 0.0
-24.6122 -37.855 0.0
-16.6487 -2.38823 0.0
-13.4709 -1.86509 0.0
-15.2862 1.18641 0.0
-15.5247 1.514 0.0
-16.376 1.96133 0.0
-19.2167 3.56143 0.0
-20.1762 2.57682 0.0
-27.598 0.0398158 0.0
-28.5766 2.93582 0.0
-32.8811 4.22513 0.0
-34.191 4.43849 0.0
-34.7667 3.757 0.0
-34.5139 1.43868 0.0
-19.1766 -27.6264 0.0
-18.6225 -24.7437 0.0
-18.2226 -21.6216 0.0
-19.9221 -20.2527 0.0
-21.2898 -20.4312 0.0
-23.4063 -22.7569 0.0
13.5736 38.1809 0.0
14.0999 38.2876 0.0
18.8053 45.0206 0.0
17.0176 45.5643 0.0
13.1358 44.6097 0.0
11.4142 40.564 0.0
-15.088 -21.685 0.0
-11.1096 -23.1578 0.0
-9.41183 -21.6269 0.0
-9.07415 -20.3234 0.0
-11.3269 -17.274 0.0
-13.1785 -17.2291 0.0
-26.2861 -51.3763 0.0
-26.0471 -51.4151 0.0
-27.272 -42.3435 0.0
-27.7699 -41.589 0.0
-29.7331 -41.061 0.0
-31.9141 -42.9594 0.0
-31.8807 -44.3753 0.0
[...]
<CellData Scalars="cell variable 4" Vectors="cell vector">
<DataArray type="Float64" NumberOfComponents="3" Name="cell vector" format="ascii">
0 0 0
0 0 0
0 0 0
0 0 0
0 0 0
0 0 0
0 0 0
0 0 0
0 0 0
0 0 0
0 0 0
0 0 0
0 0 0
0 0 0
0 0 0
0 0 0
0 0 0
0 0 0
0 0 0
0 0 0
0 0 0
0 0 0
0 0 0
0 0 0
0 0 0
0 0 0
0 0 0
0 0 0
0 0 0
0 0 0
0 0 0
0 0 0
0 0 0
0 0 0
0 0 0
0 0 0
0 0 0
0 0 0
0 0 0
0 0 0
0 0 0
0 0 0
0 0 0
0 0 0
0 0 0
0 0 0
0 0 0
0 0 0
0 0 0
0 0 0
0 0 0
0 0 0
0 0 0
0 0 0
0 0 0
0 0 0
0 0 0
0 0 0
0 0 0
0 0 0
0 0 0
0 0 0
0 0 0
0 0 0
0 0 0
0 0 0
0 0 0
0 0 0
0 0 0
0 0 0
0 0 0
0 0 0
0 0 0
0 0 0
0 0 0
0 0 0
0 0 0
0 0 0
0 0 0
0 0 0
0 0 0
0 0 0
0 0 0
0 0 0
0 0 0
0 0 0
0 0 0
0 0 0
0 0 0
0 0 0
0 0 0
0 0 0
0 0 0
0 0 0
0 0 0
0 0 0
0 0 0
0 0 0
0 0 0
0 0 0
0 0 0
0 0 0
0 0 0
0 0 0
0 0 0
0 0 0
0 0 0
0 0 0
0 0 0
0 0 0
0 0 0
0 0 0
0 0 0
0 0 0
0 0 0
0 0 0
0 0 0
0 0 0
0 0 0
0 0 0
0 0 0
0 0 0
0 0 0
0 0 0
0 0 0
0 0 0
0 0 0
0 0 0
0 0 0
0 0 0
0 0 0
0 0 0
0 0 0
0 0 0
0 0 0
0 0 0
0 0 0
0 0 0
0 0 0
0 0 0
0 0 0
0 0 0
0 0 0
0 0 0
0 0 0
0 0 0
0 0 0
0 0 0
0 0 0
0 0 0
0 0 0
0 0 0
0 0 0
0 0 0
0 0 0
0 0 0
0 0 0
0 0 0
0 0 0
0 0 0
0 0 0
0 0 0
0 0 0
0 0 0
0 0 0
0 0 0
0 0 0
0 0 0
0 0 0
0 0 0
0 0 0
0 0 0
0 0 0
0 0 0
0 0 0
0 0 0
0 0 0
0 0 0
0 0 0
0 0 0
0 0 0
0 0 0
0 0 0
0 0 0
0 0 0
0 0 0
0 0 0
0 0 0
0 0 0
0 0 0
0 0 0
0 0 0
0 0 0
0 0 0
0 0 0
0 0 0
0 0 0
0 0 0
0 0 0
0 0 0
0 0 0
0 0 0
0 0 0
0 0 0
0 0 0
0 0 0
0 0 0
0 0 0
0 0 0
0 0 0
0 0 0
0 0 0
0 0 0
0 0 0
0 0 0
0 0 0
0 0 0
0 0 0
0 0 0
0 0 0
0 0 0
0 0 0
0 0 0
0 0 0
0 0 0
0 0 0
0 0 0
0 0 0
0 0 0
0 0 0
0 0 0
0 0 0
0 0 0
0 0 0
0 0 0
0 0 0
0 0 0
0 0 0
0 0 0
0 0 0
0 0 0
0 0 0
0 0 0
0 0 0
0 0 0
0 0 0
0 0 0
0 0 0
0 0 0
0 0 0
0 0 0
0 0 0
0 0 0
0 0 0
0 0 0
0 0 0
0 0 0
0 0 0
0 0 0
0 0 0
0 0 0
0 0 0
0 0 0
0 0 0
0 0 0
0 0 0
0 0 0
0 0 0
0 0 0
0 0 0
0 0 0
0 0 0
0 0 0
0 0 0
0 0 0
0 0 0
0 0 0
0 0 0
0 0 0
0 0 0
0 0 0
0 0 0
0 0 0
0 0 0
0 0 0
0 0 0
0 0 0
0 0 0
0 0 0
0 0 0
0 0 0
0 0 0
0 0 0
0 0 0
0 0 0
0 0 0
0 0 0
0 0 0
0 0 0
0 0 0
0 0 0
0 0 0
0 0 0
0 0 0
0 0 0
0 0 0
0 0 0
0 0 0
0 0 0
0 0 0
0 0 0
0 0 0
0 0 0
0 0 0
0 0 0
0 0 0
0 0 0
0 0 0
0 0 0
0 0 0
0 0 0
0 0 0
0 0 0
0 0 0
0 0 0
0 0 0
0 0 0
0 0 0
0 0 0
0 0 0
0 0 0
0 0 0
0 0 0
0 0 0
0 0 0
0 0 0
0 0 0
0 0 0
0 0 0
0 0 0
0 0 0
0 0 0
0 0 0
0 0 0
0 0 0
0 0 0
0 0 0
0 0 0
0 0 0
0 0 0
0 0 0
0 0 0
0 0 0
0 0 0
0 0 0
0 0 0
0 0 0
0 0 0
0 0 0
0 0 0
0 0 0
0 0 0
0 0 0
0 0 0
0 0 0
0 0 0
0 0 0
0 0 0
0 0 0
0 0 0
0 0 0
0 0 0
0 0 0
0 0 0
0 0 0
0 0 0
0 0 0
0 0 0
0 0 0
0 0 0
0 0 0
0 0 0
0 0 0
0 0 0
0 0 0
0 0 0
0 0 0
0 0 0
0 0 0
0 0 0
0 0 0
0 0 0
0 0 0
0 0 0
0 0 0
0 0 0
0 0 0
0 0 0
0 0 0
0 0 0
0 0 0
0 0 0
0 0 0
0 0 0
0 0 0
0 0 0
0 0 0
0 0 0
0 0 0
0 0 0
0 0 0
0 0 0
0 0 0
0 0 0
0 0 0
0 0 0
0 0 0
</DataArray>
<DataArray type="Float64" Name="cell vector length" format="ascii">
0 0 0 0 0 0 0 0 0 0 0 0 0 0 0 0 0 0 0 0 0 0 0 0 0 0 0 0 0 0 0 0 0 0 0 0 0 0 0 0 0 0 0 0 0 0 0 0 0 0 0 0 0 0 0 0 0 0 0 0 0 0 0 0 0 0 0 0 0 0 0 0 0 0 0 0 0 0 0 0 0 0 0 0 0 0 0 0 0 0 0 0 0 0 0 0 0 0 0 0 0 0 0 0 0 0 0 0 0 0 0 0 0 0 0 0 0 0 0 0 0 0 0 0 0 0 0 0 0 0 0 0 0 0 0 0 0 0 0 0 0 0 0 0 0 0 0 0 0 0 0 0 0 0 0 0 0 0 0 0 0 0 0 0 0 0 0 0 0 0 0 0 0 0 0 0 0 0 0 0 0 0 0 0 0 0 0 0 0 0 0 0 0 0 0 0 0 0 0 0 0 0 0 0 0 0 0 0 0 0 0 0 0 0 0 0 0 0 0 0 0 0 0 0 0 0 0 0 0 0 0 0 0 0 0 0 0 0 0 0 0 0 0 0 0 0 0 0 0 0 0 0 0 0 0 0 0 0 0 0 0 0 0 0 0 0 0 0 0 0 0 0 0 0 0 0 0 0 0 0 0 0 0 0 0 0 0 0 0 0 0 0 0 0 0 0 0 0 0 0 0 0 0 0 0 0 0 0 0 0 0 0 0 0 0 0 0 0 0 0 0 0 0 0 0 0 0 0 0 0 0 0 0 0 0 0 0 0 0 0 0 0 0 0 0 0 0 0 0 0 0 0 0 0 0 0 0 0 0 0 0 0 0 0 0 0 0 0 0 0 0 0 0 0 0 0 0 0 0 0 0 0 0 0 0 0 0 0 0 0 0 0 0 0 0 0 0 0 0 0 0 0 0 0 0 0 0 0 0 0 0 0 0 0 0 0 0 
</DataArray>
<DataArray type="Float64" Name="cell variable 4" format="ascii">
1.11547 1.06245 0.657465 1.07467 0.631062 0.94865 0.542818 0.94865 0.736473 0.8063 1.14226 1.04461 0.790107 1.04461 0.573608 0.919422 0.573608 1.10185 0.573608 0.573608 0.542818 0.99432 0.99432 1.00681 1.07467 0.66381 0.789941 1.14226 0.99432 0.631062 0.789941 0.99432 0.980966 0.626025 1.11547 0.919422 0.36504 0.631062 0.673042 0.626025 0.66381 0.8063 0.848855 0.919422 0.626025 1.10185 1.11547 0.848855 0.980966 0.657465 0.848855 0.8063 0.763876 0.789941 0.673042 1.07467 1.06245 0.736473 1.11547 0.912892 0.573608 0.708918 1.04461 1.07467 0.736473 0.542818 1.12037 0.848855 1.04461 1.00681 0.631062 1.12037 1.00681 0.90618 0.626025 1.04461 0.66381 0.94865 0.90618 1.11547 0.573608 0.708918 0.495708 0.790107 0.848855 0.912892 1.04461 1.10185 1.14226 1.07467 0.673042 0.708918 0.99432 0.626025 0.980966 0.980966 0.763876 0.919422 1.12037 1.11547 1.04461 1.04461 0.919422 0.495708 0.631062 0.919422 0.542818 1.12037 0.573608 0.912892 0.763876 0.790107 0.763876 0.673042 0.912892 0.673042 0.542818 0.657465 1.11547 0.789941 0.657465 1.07467 1.00681 0.94865 0.673042 0.673042 0.66381 1.06245 0.99432 0.790107 0.66381 0.763876 0.789941 0.848855 0.66381 1.06245 0.789941 0.789941 1.04461 0.789941 0.790107 1.00681 1.12037 0.763876 0.542818 0.980966 0.66381 0.99432 0.980966 0.848855 1.04461 0.980966 0.434405 0.919422 1.00681 0.8063 0.912892 0.790107 0.542818 1.06245 1.07467 0.94865 0.848855 1.06245 1.00681 0.763876 0.657465 1.11547 1.11547 1.10185 1.10185 0.919422 1.12037 0.626025 0.848855 0.673042 1.00681 1.00681 0.66381 0.790107 1.12037 1.00681 1.00681 0.657465 1.00681 0.980966 0.657465 1.11547 0.673042 0.848855 1.07467 0.912892 1.07467 0.631062 0.980966 0.789941 0.94865 0.763876 0.8063 0.919422 0.790107 0.90618 0.708918 0.657465 1.12037 0.912892 0.763876 0.708918 0.763876 0.980966 1.07467 1.10185 0.631062 1.06245 0.657465 0.514292 0.980966 0.673042 0.573608 1.07467 1.04461 1.04461 0.790107 1.10185 0.657465 0.8063 0.673042 1.10185 0.912892 0.763876 1.07467 0.90618 0.848855 1.10185 1.04461 0.919422 1.10185 0.399988 0.36504 0.631062 0.99432 0.94865 0.919422 1.11547 0.919422 1.00681 0.90618 0.736473 0.36504 1.07467 1.10185 0.848855 0.626025 1.14226 0.790107 0.763876 1.10185 0.99432 0.657465 0.790107 1.11547 0.573608 1.06245 0.36504 0.36504 0.631062 1.14226 0.912892 0.912892 0.919422 1.11547 0.789941 0.631062 0.542818 1.14226 1.11547 0.94865 0.631062 0.94865 1.11547 0.736473 0.736473 0.8063 0.912892 0.789941 0.631062 0.631062 0.626025 1.10185 1.00681 0.912892 1.14226 0.94865 0.763876 0.442722 0.8063 0.66381 1.12037 0.66381 0.673042 0.912892 0.790107 1.12037 1.06245 0.912892 0.789941 0.848855 0.673042 0.94865 0.90618 0.631062 0.763876 1.12037 1.07467 0.912892 0.848855 1.10185 1.11547 0.980966 0.8063 0.631062 0.789941 0.789941 0.848855 0.763876 0.848855 0.789941 1.14226 0.573608 0.673042 1.04461 0.66381 0.708918 0.708918 0.626025 0.980966 0.90618 0.495708 1.04461 0.657465 0.495708 0.631062 1.00681 0.790107 0.99432 1.06245 0.8063 0.848855 0.99432 1.12037 0.657465 0.626025 0.919422 0.657465 1.00681 0.789941 0.631062 0.8063 0.495708 1.14226 1.12037 0.542818 0.657465 0.919422 0.919422 0.763876 0.848855 1.06245 0.789941 1.11547 0.980966 0.789941 0.434405 1.10185 0.90618 0.790107 1.12037 0.919422 0.673042 0.626025 0.66381 1.11547 1.06245 0.8063 0.542818 0.919422 0.626025 0.90618 1.14226 0.542818 0.626025 1.04461 0.90618 0.657465 0.657465 0.919422 0.66381 1.12037 1.06245 1.06245 1.07467 1.11547 0.673042 0.790107 0.631062 1.14226 0.919422 1.07467 1.04461 0.573608 0.912892 0.8063 0.763876 0.94865 0.90618 0.8063 0.90618 
</DataArray>
<DataArray type="Float64" Name="cell variable 5" format="ascii">
0.00797274 0.00878122 0.0226112 0.00858434 0.0244954 0.0109898 0.0328244 0.0109898 0.0181031 0.0151488 0.00760594 0.00908091 0.0157662 0.00908091 0.0294962 0.0116913 0.0294962 0.00816951 0.0294962 0.0294962 0.0328244 0.0100133 0.0100133 0.00976872 0.00858434 0.0221905 0.0157727 0.00760594 0.0100133 0.0244954 0.0157727 0.0100133 0.0102849 0.0248813 0.00797274 0.0116913 0.0698059 0.0244954 0.021599 0.0248813 0.0221905 0.0151488 0.0136882 0.0116913 0.0248813 0.00816951 0.00797274 0.0136882 0.0102849 0.0226112 0.0136882 0.0151488 0.016849 0.0157727 0.021599 0.00858434 0.00878122 0.0181031 0.00797274 0.0118572 0.0294962 0.0195097 0.00908091 0.00858434 0.0181031 0.0328244 0.00790366 0.0136882 0.00908091 0.00976872 0.0244954 0.00790366 0.00976872 0.0120314 0.0248813 0.00908091 0.0221905 0.0109898 0.0120314 0.00797274 0.0294962 0.0195097 0.0391044 0.0157662 0.0136882 0.0118572 0.00908091 0.00816951 0.00760594 0.00858434 0.021599 0.0195097 0.0100133 0.0248813 0.0102849 0.0102849 0.016849 0.0116913 0.00790366 0.00797274 0.00908091 0.00908091 0.0116913 0.0391044 0.0244954 0.0116913 0.0328244 0.00790366 0.0294962 0.0118572 0.016849 0.0157662 0.016849 0.021599 0.0118572 0.021599 0.0328244 0.0226112 0.00797274 0.0157727 0.0226112 0.00858434 0.00976872 0.0109898 0.021599 0.021599 0.0221905 0.00878122 0.0100133 0.0157662 0.0221905 0.016849 0.0157727 0.0136882 0.0221905 0.00878122 0.0157727 0.0157727 0.00908091 0.0157727 0.0157662 0.00976872 0.00790366 0.016849 0.0328244 0.0102849 0.0221905 0.0100133 0.0102849 0.0136882 0.00908091 0.0102849 0.0503251 0.0116913 0.00976872 0.0151488 0.0118572 0.0157662 0.0328244 0.00878122 0.00858434 0.0109898 0.0136882 0.00878122 0.00976872 0.016849 0.0226112 0.00797274 0.00797274 0.00816951 0.00816951 0.0116913 0.00790366 0.0248813 0.0136882 0.021599 0.00976872 0.00976872 0.0221905 0.0157662 0.00790366 0.00976872 0.00976872 0.0226112 0.00976872 0.0102849 0.0226112 0.00797274 0.021599 0.0136882 0.00858434 0.0118572 0.00858434 0.0244954 0.0102849 0.0157727 0.0109898 0.016849 0.0151488 0.0116913 0.0157662 0.0120314 0.0195097 0.0226112 0.00790366 0.0118572 0.016849 0.0195097 0.016849 0.0102849 0.00858434 0.00816951 0.0244954 0.00878122 0.0226112 0.0364304 0.0102849 0.021599 0.0294962 0.00858434 0.00908091 0.00908091 0.0157662 0.00816951 0.0226112 0.0151488 0.021599 0.00816951 0.0118572 0.016849 0.00858434 0.0120314 0.0136882 0.00816951 0.00908091 0.0116913 0.00816951 0.0588268 0.0698059 0.0244954 0.0100133 0.0109898 0.0116913 0.00797274 0.0116913 0.00976872 0.0120314 0.0181031 0.0698059 0.00858434 0.00816951 0.0136882 0.0248813 0.00760594 0.0157662 0.016849 0.00816951 0.0100133 0.0226112 0.0157662 0.00797274 0.0294962 0.00878122 0.0698059 0.0698059 0.0244954 0.00760594 0.0118572 0.0118572 0.0116913 0.00797274 0.0157727 0.0244954 0.0328244 0.00760594 0.00797274 0.0109898 0.0244954 0.0109898 0.00797274 0.0181031 0.0181031 0.0151488 0.0118572 0.0157727 0.0244954 0.0244954 0.0248813 0.00816951 0.00976872 0.0118572 0.00760594 0.0109898 0.016849 0.0485429 0.0151488 0.0221905 0.00790366 0.0221905 0.021599 0.0118572 0.0157662 0.00790366 0.00878122 0.0118572 0.0157727 0.0136882 0.021599 0.0109898 0.0120314 0.0244954 0.016849 0.00790366 0.00858434 0.0118572 0.0136882 0.00816951 0.00797274 0.0102849 0.0151488 0.0244954 0.0157727 0.0157727 0.0136882 0.016849 0.0136882 0.0157727 0.00760594 0.0294962 0.021599 0.00908091 0.0221905 0.0195097 0.0195097 0.0248813 0.0102849 0.0120314 0.0391044 0.00908091 0.0226112 0.0391044 0.0244954 0.00976872 0.0157662 0.0100133 0.00878122 0.0151488 0.0136882 0.0100133 0.00790366 0.0226112 0.0248813 0.0116913 0.0226112 0.00976872 0.0157727 0.0244954 0.0151488 0.0391044 0.00760594 0.00790366 0.0328244 0.0226112 0.0116913 0.0116913 0.016849 0.0136882 0.00878122 0.0157727 0.00797274 0.0102849 0.0157727 0.0503251 0.00816951 0.0120314 0.0157662 0.00790366 0.0116913 0.021599 0.0248813 0.0221905 0.00797274 0.00878122 0.0151488 0.0328244 0.0116913 0.0248813 0.0120314 0.00760594 0.0328244 0.0248813 0.00908091 0.0120314 0.0226112 0.0226112 0.0116913 0.0221905 0.00790366 0.00878122 0.00878122 0.00858434 0.00797274 0.021599 0.0157662 0.0244954 0.00760594 0.0116913 0.00858434 0.00908091 0.0294962 0.0118572 0.0151488 0.016849 0.0109898 0.0120314 0.0151488 0.0120314 
</DataArray>
<DataArray type="Float64" Name="cell variable 6" format="ascii">
4.32387e-06 5.74138e-06 8.84138e-05 5.3719e-06 0.000110922 1.10661e-05 0.000251962 1.10661e-05 4.69278e-05 2.80904e-05 3.76475e-06 6.33494e-06 3.15261e-05 6.33494e-06 0.000187165 1.32528e-05 0.000187165 4.64493e-06 0.000187165 0.000187165 0.000251962 8.43313e-06 8.43313e-06 7.8448e-06 5.3719e-06 8.3838e-05 3.156e-05 3.76475e-06 8.43313e-06 0.000110922 3.156e-05 8.43313e-06 9.11938e-06 0.000115922 4.32387e-06 1.32528e-05 0.0019794 0.000110922 7.76673e-05 0.000115922 8.3838e-05 2.80904e-05 2.09522e-05 1.32528e-05 0.000115922 4.64493e-06 4.32387e-06 2.09522e-05 9.11938e-06 8.84138e-05 2.09522e-05 2.80904e-05 3.81646e-05 3.156e-05 7.76673e-05 5.3719e-06 5.74138e-06 4.69278e-05 4.32387e-06 1.38076e-05 0.000187165 5.81379e-05 6.33494e-06 5.3719e-06 4.69278e-05 0.000251962 4.21468e-06 2.09522e-05 6.33494e-06 7.8448e-06 0.000110922 4.21468e-06 7.8448e-06 1.4406e-05 0.000115922 6.33494e-06 8.3838e-05 1.10661e-05 1.4406e-05 4.32387e-06 0.000187165 5.81379e-05 0.000410215 3.15261e-05 2.09522e-05 1.38076e-05 6.33494e-06 4.64493e-06 3.76475e-06 5.3719e-06 7.76673e-05 5.81379e-05 8.43313e-06 0.000115922 9.11938e-06 9.11938e-06 3.81646e-05 1.32528e-05 4.21468e-06 4.32387e-06 6.33494e-06 6.33494e-06 1.32528e-05 0.000410215 0.000110922 1.32528e-05 0.000251962 4.21468e-06 0.000187165 1.38076e-05 3.81646e-05 3.15261e-05 3.81646e-05 7.76673e-05 1.38076e-05 7.76673e-05 0.000251962 8.84138e-05 4.32387e-06 3.156e-05 8.84138e-05 5.3719e-06 7.8448e-06 1.10661e-05 7.76673e-05 7.76673e-05 8.3838e-05 5.74138e-06 8.43313e-06 3.15261e-05 8.3838e-05 3.81646e-05 3.156e-05 2.09522e-05 8.3838e-05 5.74138e-06 3.156e-05 3.156e-05 6.33494e-06 3.156e-05 3.15261e-05 7.8448e-06 4.21468e-06 3.81646e-05 0.000251962 9.11938e-06 8.3838e-05 8.43313e-06 9.11938e-06 2.09522e-05 6.33494e-06 9.11938e-06 0.000857904 1.32528e-05 7.8448e-06 2.80904e-05 1.38076e-05 3.15261e-05 0.000251962 5.74138e-06 5.3719e-06 1.10661e-05 2.09522e-05 5.74138e-06 7.8448e-06 3.81646e-05 8.84138e-05 4.32387e-06 4.32387e-06 4.64493e-06 4.64493e-06 1.32528e-05 4.21468e-06 0.000115922 2.09522e-05 7.76673e-05 7.8448e-06 7.8448e-06 8.3838e-05 3.15261e-05 4.21468e-06 7.8448e-06 7.8448e-06 8.84138e-05 7.8448e-06 9.11938e-06 8.84138e-05 4.32387e-06 7.76673e-05 2.09522e-05 5.3719e-06 1.38076e-05 5.3719e-06 0.000110922 9.11938e-06 3.156e-05 1.10661e-05 3.81646e-05 2.80904e-05 1.32528e-05 3.15261e-05 1.4406e-05 5.81379e-05 8.84138e-05 4.21468e-06 1.38076e-05 3.81646e-05 5.81379e-05 3.81646e-05 9.11938e-06 5.3719e-06 4.64493e-06 0.000110922 5.74138e-06 8.84138e-05 0.000349016 9.11938e-06 7.76673e-05 0.000187165 5.3719e-06 6.33494e-06 6.33494e-06 3.15261e-05 4.64493e-06 8.84138e-05 2.80904e-05 7.76673e-05 4.64493e-06 1.38076e-05 3.81646e-05 5.3719e-06 1.4406e-05 2.09522e-05 4.64493e-06 6.33494e-06 1.32528e-05 4.64493e-06 0.00127682 0.0019794 0.000110922 8.43313e-06 1.10661e-05 1.32528e-05 4.32387e-06 1.32528e-05 7.8448e-06 1.4406e-05 4.69278e-05 0.0019794 5.3719e-06 4.64493e-06 2.09522e-05 0.000115922 3.76475e-06 3.15261e-05 3.81646e-05 4.64493e-06 8.43313e-06 8.84138e-05 3.15261e-05 4.32387e-06 0.000187165 5.74138e-06 0.0019794 0.0019794 0.000110922 3.76475e-06 1.38076e-05 1.38076e-05 1.32528e-05 4.32387e-06 3.156e-05 0.000110922 0.000251962 3.76475e-06 4.32387e-06 1.10661e-05 0.000110922 1.10661e-05 4.32387e-06 4.69278e-05 4.69278e-05 2.80904e-05 1.38076e-05 3.156e-05 0.000110922 0.000110922 0.000115922 4.64493e-06 7.8448e-06 1.38076e-05 3.76475e-06 1.10661e-05 3.81646e-05 0.000858618 2.80904e-05 8.3838e-05 4.21468e-06 8.3838e-05 7.76673e-05 1.38076e-05 3.15261e-05 4.21468e-06 5.74138e-06 1.38076e-05 3.156e-05 2.09522e-05 7.76673e-05 1.10661e-05 1.4406e-05 0.000110922 3.81646e-05 4.21468e-06 5.3719e-06 1.38076e-05 2.09522e-05 4.64493e-06 4.32387e-06 9.11938e-06 2.80904e-05 0.000110922 3.156e-05 3.156e-05 2.09522e-05 3.81646e-05 2.09522e-05 3.156e-05 3.76475e-06 0.000187165 7.76673e-05 6.33494e-06 8.3838e-05 5.81379e-05 5.81379e-05 0.000115922 9.11938e-06 1.4406e-05 0.000410215 6.33494e-06 8.84138e-05 0.000410215 0.000110922 7.8448e-06 3.15261e-05 8.43313e-06 5.74138e-06 2.80904e-05 2.09522e-05 8.43313e-06 4.21468e-06 8.84138e-05 0.000115922 1.32528e-05 8.84138e-05 7.8448e-06 3.156e-05 0.000110922 2.80904e-05 0.000410215 3.76475e-06 4.21468e-06 0.000251962 8.84138e-05 1.32528e-05 1.32528e-05 3.81646e-05 2.09522e-05 5.74138e-06 3.156e-05 4.32387e-06 9.11938e-06 3.156e-05 0.000857904 4.64493e-06 1.4406e-05 3.15261e-05 4.21468e-06 1.32528e-05 7.76673e-05 0.000115922 8.3838e-05 4.32387e-06 5.74138e-06 2.80904e-05 0.000251962 1.32528e-05 0.000115922 1.4406e-05 3.76475e-06 0.000251962 0.000115922 6.33494e-06 1.4406e-05 8.84138e-05 8.84138e-05 1.32528e-05 8.3838e-05 4.21468e-06 5.74138e-06 5.74138e-06 5.3719e-06 4.32387e-06 7.76673e-05 3.15261e-05 0.000110922 3.76475e-06 1.32528e-05 5.3719e-06 6.33494e-06 0.000187165 1.38076e-05 2.80904e-05 3.81646e-05 1.10661e-05 1.4406e-05 2.80904e-05 1.4406e-05 
</DataArray>
<DataArray type="Float64" Name="cell variable 7" format="ascii">