<VTKFile type="UnstructuredGrid" version="0.1">
<UnstructuredGrid>
<Piece  NumberOfPoints="    3449" NumberOfCells="    2530">
<Points>
<DataArray type="Float64" NumberOfComponents="3" format="ascii">
11.9346 30.4669 0 
14.6089 12.6259 0 
-16.6241 -19.7181 0 
31.3984 -49.6928 0 
15.0354 5.01132 0 
-20.0263 1.42502 0 
-48.0016 -38.5028 0 
51.5991 21.1885 0 
49.0968 -3.27616 0 
3.30584 -45.6857 0 
24.1777 -1.7333 0 
-5.00915 -59.1851 0 
0.162337 -54.8316 0 
47.1926 -42.1595 0 
25.633 24.9317 0 
54.8281 26.0151 0 
-37.5252 32.3912 0 
-11.6353 31.1957 0 
-43.6708 22.5531 0 
-42.0269 24.2519 0 
-6.63423 49.0368 0 
33.4717 14.3529 0 
48.3436 0.736953 0 
10.6677 1.43305 0 
2.63503 -54.4503 0 
-20.7518 20.2742 0 
-14.3244 -20.2301 0 
-25.2421 53.7259 0 
15.1624 -17.1146 0 
-1.53933 -39.0568 0 
3.03441 -32.8765 0 
-29.5119 -33.5537 0 
-51.0955 -21.4233 0 
-51.164 -3.55181 0 
-50.0307 -26.2861 0 
-11.6377 -24.6742 0 
-13.4218 44.6009 0 
16.2208 12.1198 0 
-9.15569 7.72998 0 
-36.8679 5.07248 0 
-28.6018 -34.3791 0 
-12.9125 -36.1199 0 
-0.697917 -18.1218 0 
40.5321 -45.9758 0 
55.7131 15.8316 0 
-9.67723 40.4667 0 
-21.3231 -0.766676 0 
49.2962 9.31174 0 
9.08051 37.2246 0 
-21.3534 20.8387 0 
4.39411 34.8189 0 
-1.80587 -54.8895 0 
-44.4699 -16.3695 0 
34.3034 4.8341 0 
-44.3437 -41.7354 0 
6.50118 -58.596 0 
29.5851 33.262 0 
38.1844 45.8949 0 
22.6718 -47.5342 0 
10.9717 -52.8197 0 
-34.2571 38.9061 0 
20.6919 -54.982 0 
-1.22962 -54.7111 0 
60.1427 -11.3552 0 
-20.0676 43.2172 0 
-23.4182 -58.1213 0 
42.2079 -18.2321 0 
41.0337 -31.7111 0 
42.062 -31.3172 0 
-32.0636 21.1181 0 
25.3533 -6.90212 0 
-60.1783 -14.0978 0 
5.37925 -47.0248 0 
-38.2085 22.3003 0 
30.4834 5.18007 0 
33.3735 -5.19103 0 
-49.7124 -17.0314 0 
-31.6884 22.2172 0 
-7.33801 -36.4014 0 
12.5668 2.08402 0 
-60.3784 0.03992 0 
17.4832 26.6972 0 
-18.3222 -18.3446 0 
-34.2419 13.3798 0 
-56.7052 27.8131 0 
2.7711 46.4947 0 
54.8336 17.9612 0 
-46.9985 20.1928 0 
53.1974 23.0819 0 
-1.39887 -36.2313 0 
-37.1134 -21.6451 0 
-27.3136 -56.0217 0 
40.7462 10.89 0 
13.4511 22.0398 0 
-39.9397 -17.0776 0 
41.7673 37.9293 0 
54.7282 -3.99083 0 
-57.8557 -2.6269 0 
20.9432 54.0172 0 
-42.7568 2.73673 0 
13.3736 -52.663 0 
59.173 -9.85121 0 
-25.9814 42.6775 0 
-26.3375 -8.41019 0 
58.6171 -6.94281 0 
-24.8761 -0.601468 0 
27 27.4742 0 
56.8345 -5.02508 0 
29.9298 -54.7157 0 
-34.2053 28.6605 0 
-42.9599 -35.513 0 
-31.5503 22.4013 0 
50.0374 37.7812 0 
49.742 -14.7374 0 
29.9965 32.013 0 
-0.344768 -25.538 0 
-33.1155 39.2987 0 
13.6414 -45.6749 0 
-10.0449 -41.6606 0 
-4.66638 49.0318 0 
56.446 12.3115 0 
13.2205 -1.18705 0 
-43.6342 23.559 0 
-1.67838 21.5685 0 
13.9752 -43.5767 0 
-18.2963 51.8283 0 
-29.5966 -39.3193 0 
32.3199 18.7751 0 
8.94804 10.7134 0 
-6.56957 58.8663 0 
21.0613 42.8354 0 
-40.9709 -2.39386 0 
20.1934 7.8701 0 
-22.1676 -34.3299 0 
-18.9671 52.8995 0 
-38.5747 48.8375 0 
60.1814 -11.5425 0 
31.7085 -44.487 0 
8.41781 16.0035 0 
6.95516 -4.86177 0 
30.4532 49.5234 0 
-53.7637 11.8895 0 
21.0663 41.1339 0 
-11.3497 30.9349 0 
-59.3362 12.4908 0 
4.77116 58.7045 0 
-50.4554 24.3805 0 
41.2021 -48.2032 0 
-46.8813 -3.80502 0 
-0.0241564 45.7015 0 
32.1861 37.4955 0 
55.1854 -12.6161 0 
-49.8555 -4.70662 0 
19.4709 -29.3384 0 
-41.5388 -35.0436 0 
-57.0182 -28.393 0 
16.289 34.5723 0 
36.0918 22.4528 0 
-44.8105 38.0464 0 
-35.4188 -52.0285 0 
-41.4815 -7.38631 0 
-22.9204 -27.0136 0 
35.916 -0.81208 0 
25.8104 -56.2423 0 
-6.27347 -52.708 0 
40.528 -12.2587 0 
35.1309 24.5284 0 
32.511 -33.5146 0 
2.64146 32.7157 0 
-32.0875 -47.2282 0 
49.2122 13.2217 0 
-49.2028 30.6805 0 
40.0644 42.0393 0 
-23.879 -48.1982 0 
11.312 -14.1035 0 
-17.115 36.0956 0 
-26.379 47.2527 0 
-50.9216 5.20891 0 
19.5293 -34.6724 0 
26.8917 -15.9773 0 
6.71317 -31.6942 0 
1.38911 44.1256 0 
-15.524 39.6351 0 
-2.86116 7.70749 0 
-21.0524 35.4741 0 
41.1971 -39.7433 0 
26.6407 -27.34 0 
19.9818 54.9975 0 
20.0648 -19.3076 0 
-51.4448 -24.5614 0 
4.43006 40.9309 0 
27.7877 10.8645 0 
-10.4157 -31.1538 0 
4.15665 53.2344 0 
-50.2864 9.71665 0 
32.6517 19.2058 0 
11.2916 22.5553 0 
-35.7069 16.9824 0 
6.56517 8.29594 0 
45.6437 -22.1052 0 
11.66 42.0531 0 
55.3138 -4.91968 0 
-26.1342 21.3855 0 
-26.9903 -27.4701 0 
-23.8122 -58.0771 0 
-2.95624 26.707 0 
-47.1278 -25.5619 0 
40.1418 -31.7724 0 
-3.95884 -9.32021 0 
0.364263 -25.7206 0 
-9.27234 -42.3694 0 
-34.7172 -35.7364 0 
-18.0584 50.646 0 
52.8232 -29.9044 0 
12.1351 45.6947 0 
36.537 -22.1526 0 
-12.1593 58.2639 0 
-10.771 34.1096 0 
-15.1567 23.5201 0 
-8.87055 47.6841 0 
-25.6098 35.7693 0 
-50.0033 6.14909 0 
43.1445 4.52991 0 
53.3326 35.4049 0 
22.2413 44.9195 0 
30.4153 5.49558 0 
22.481 -52.0619 0 
28.2412 30.0299 0 
-57.1572 -18.5249 0 
-8.47279 42.0754 0 
-4.11253 37.3116 0 
30.2452 -4.1503 0 
-25.3774 6.82562 0 
-50.913 33.8752 0 
-47.518 -26.5543 0 
-34.5051 -51.7216 0 
25.5046 44.3809 0 
-14.6342 12.8448 0 
-44.1287 21.5486 0 
-38.6784 -30.5229 0 
-22.4541 -31.3639 0 
-2.15949 38.8771 0 
-35.1091 -12.8095 0 
13.2007 -2.0074 0 
40.9307 -20.5416 0 
-57.1643 27.3732 0 
3.55609 22.8975 0 
-10.1981 -39.2233 0 
-17.6731 34.0334 0 
-41.2307 40.683 0 
-42.3699 45.2348 0 
32.8464 -37.4378 0 
13.7302 13.5378 0 
50.2784 -19.414 0 
13.5202 -38.376 0 
-16.5488 -42.9336 0 
-55.2615 -10.7329 0 
19.2848 -55.8649 0 
48.5702 -2.86787 0 
-26.7695 -26.4377 0 
-30.3972 -33.3483 0 
10.6874 -13.5844 0 
-48.1737 30.7116 0 
40.5662 -2.11159 0 
6.89442 -29.9406 0 
29.1811 -18.8856 0 
-15.4486 18.086 0 
-24.9747 -38.6099 0 
-14.0853 0.988176 0 
49.7101 -26.6498 0 
-24.2379 49.4467 0 
-31.6192 -48.4579 0 
-26.6912 -4.08798 0 
-41.4891 -37.5985 0 
27.1957 17.4793 0 
-0.0569305 -33.4064 0 
-29.5425 -40.9322 0 
-45.6292 37.8355 0 
-19.9349 41.8759 0 
-11.0113 -8.89318 0 
33.6498 -49.7684 0 
9.45107 31.8115 0 
-9.2467 -30.753 0 
32.5904 -8.54103 0 
16.2979 -11.1554 0 
-15.3455 44.4701 0 
44.6337 -2.58688 0 
-48.2083 -16.5776 0 
36.4156 -6.61161 0 
-26.0568 17.7012 0 
-55.853 -24.9855 0 
-7.82633 -45.4558 0 
-5.99209 31.2381 0 
-31.526 29.2492 0 
-50.8407 9.88614 0 
6.50106 6.05828 0 
-20.6006 -48.5027 0 
0.234659 44.8189 0 
-19.1808 25.3466 0 
-9.43805 -51.1881 0 
-13.7996 13.3061 0 
12.3791 34.8717 0 
-12.7356 -51.6476 0 
38.838 17.3122 0 
5.55801 61.0118 0 
34.2276 -28.8102 0 
12.365 54.7504 0 
2.82684 23.5512 0 
15.9634 42.2534 0 
38.1853 44.191 0 
48.8328 13.2067 0 
-14.5789 60.1298 0 
-16.6745 -57.5469 0 
21.5722 -47.6145 0 
25.2914 -8.93541 0 
-42.0786 7.56466 0 
-27.8879 22.579 0 
-10.2195 -23.0102 0 
50.7627 -16.6024 0 
-13.6799 -59.8605 0 
41.1831 -38.5753 0 
50.1832 -11.4122 0 
13.7591 -32.6517 0 
39.4866 3.31543 0 
8.60834 -61.5451 0 
-0.979438 -5.05816 0 
-16.7843 -14.2371 0 
11.8716 -37.8672 0 
30.5908 -50.7444 0 
-42.9788 1.87608 0 
29.0746 -20.0308 0 
-33.8411 -3.26752 0 
3.29693 -15.0364 0 
-41.0948 -43.6639 0 
31.2532 44.872 0 
30.9392 -31.9862 0 
-45.1228 13.2284 0 
-31.2972 46.8774 0 
0.0123958 54.5231 0 
-33.5162 27.5264 0 
-8.01363 48.4341 0 
-0.626243 24.6096 0 
29.1752 -19.6834 0 
1.85887 32.5478 0 
-11.5637 -51.6457 0 
27.3595 49.5058 0 
-3.38546 29.5699 0 
57.8161 -24.9119 0 
-14.0451 9.8413 0 
45.2978 14.3325 0 
42.947 6.10774 0 
-22.4663 -58.4821 0 
-24.3685 10.2712 0 
-4.6859 -9.56773 0 
13.1505 -18.523 0 
-26.2218 37.4408 0 
50.9657 -19.2773 0 
-0.357914 45.8272 0 
-10.1973 -22.6396 0 
23.2051 -50.8446 0 
0.0532705 -64.1157 0 
3.48197 23.0091 0 
-49.6435 10.9488 0 
-31.4152 9.5678 0 
20.8654 -22.2898 0 
4.89902 28.0287 0 
-12.6865 58.4271 0 
28.38 38.3617 0 
-32.3223 1.26379 0 
1.43542 -0.919705 0 
-3.87341 -31.044 0 
29.7236 8.25393 0 
-23.6358 -48.2497 0 
21.1463 49.9919 0 
6.25999 -31.3361 0 
-33.4615 -38.7599 0 
36.3859 -38.0948 0 
0.652078 -55 0 
-16.9762 19.8201 0 
4.99387 -8.99524 0 
54.3117 10.6087 0 
-41.4951 40.7098 0 
20.3683 14.0552 0 
18.5961 9.29526 0 
12.5045 -13.1671 0 
-44.7932 26.8319 0 
-16.6527 6.71391 0 
36.2785 -12.5671 0 
-15.0043 51.2177 0 
-12.1307 -15.4369 0 
-41.784 19.164 0 
-7.1971 5.85525 0 
13.7251 47.2605 0 
-27.8428 -10.5582 0 
27.2437 -13.7611 0 
-59.1544 3.7132 0 
-9.87595 7.75384 0 
-49.7063 -31.6906 0 
-18.6945 50.0235 0 
-29.5826 -40.721 0 
-10.0072 25.7172 0 
-27.4249 -37.4543 0 
15.5066 55.565 0 
-18.1739 -50.2245 0 
4.14228 -47.0366 0 
-19.2562 -43.5297 0 
39.8816 -49.2745 0 
-37.3942 17.0252 0 
-8.64321 -60.7529 0 
18.3362 31.7611 0 
-58.1364 18.3782 0 
53.0913 37.9411 0 
45.5891 29.7217 0 
-40.9342 31.2004 0 
-28.2673 -50.094 0 
-23.5066 30.2074 0 
-8.39795 0.0857222 0 
0.335654 14.4608 0 
-10.0933 -39.9334 0 
-10.2801 -53.5307 0 
24.0003 -39.3957 0 
30.6925 53.5383 0 
11.2787 4.51826 0 
37.4865 19.8288 0 
-24.5879 55.3691 0 
-4.27421 35.8207 0 
7.38268 -32.4096 0 
-10.2014 -15.6993 0 
-39.5357 31.9087 0 
12.45 21.7546 0 
26.8184 -43.4324 0 
-46.3419 28.6622 0 
-0.566047 15.0198 0 
-15.3793 13.4362 0 
-32.21 -1.81918 0 
23.9562 -30.0942 0 
-12.0235 -1.98399 0 
9.06485 -9.51956 0 
-32.3797 49.0571 0 
62.9352 1.83075 0 
-16.4073 -27.8699 0 
7.95637 -45.8609 0 
11.2818 28.7392 0 
10.1517 -28.1269 0 
31.0869 -31.7044 0 
-38.6895 -32.0776 0 
-17.3978 -11.3904 0 
-41.8548 -35.7835 0 
-17.4652 -27.48 0 
-0.0348904 15.2202 0 
-57.0741 -23.7717 0 
41.0491 -18.8525 0 
50.1244 2.00142 0 
1.94854 57.5103 0 
38.5163 34.1702 0 
29.4028 -32.3918 0 
26.2064 -43.8059 0 
20.8018 -30.1591 0 
-7.87786 -60.204 0 
26.5969 15.6492 0 
-55.9303 -17.0594 0 
-40.1869 -29.0233 0 
49.5334 27.4251 0 
-36.2381 47.2071 0 
30.2444 -44.4417 0 
19.2092 -35.2728 0 
22.4213 54.5748 0 
42.6978 20.8388 0 
41.4354 38.7558 0 
21.9461 8.60972 0 
-45.972 -17.0657 0 
-16.1614 60.1434 0 
23.7999 -38.3956 0 
16.4492 20.2199 0 
16.2374 -4.79245 0 
-13.2562 -30.8868 0 
-2.11615 -32.5854 0 
-14.5637 24.3488 0 
22.6659 -25.1496 0 
4.5263 35.0844 0 
20.8226 54.4468 0 
-7.76969 6.49424 0 
20.0584 -29.3956 0 
-16.151 -8.58516 0 
15.8007 55.7751 0 
-12.0042 -8.02314 0 
45.6076 -42.0311 0 
40.9032 -10.0022 0 
7.80045 -19.9613 0 
-12.4516 -37.2016 0 
32.0396 3.96647 0 
-41.5337 -24.3851 0 
-4.44547 49.021 0 
[...]
<CellData Scalars="wall variable 0">
<DataArray type="Float64" Name="wall length" format="ascii">
2.96377 6.82712 1.457 0.836462 0.934331 2.29191 1.96217 1.5656 1.16906 8.36914 2.47281 1.49557 6.94661 3.29537 6.26092 0.750524 0.877569 4.75693 3.32454 2.60536 3.63184 3.34481 6.22057 0.353975 1.6883 1.13339 2.59327 2.14399 0.633442 0.85396 3.14197 0.934918 4.49387 5.0844 0.697021 11.4146 0.771095 2.75601 3.35271 5.74478 0.333671 4.68223 2.53215 1.31883 3.02628 8.26162 3.06693 5.26454 1.65101 2.30809 0.697021 0.438569 4.05027 0.285267 6.6507 3.48375 0.325618 2.9312 5.67051 1.34759 1.70147 1.85299 1.69041 0.565249 4.13413 5.29085 1.62015 7.24254 2.09795 1.10108 6.33914 0.822465 1.10774 3.29915 0.606735 5.24802 1.37277 6.86812 1.77523 1.64133 8.44101 0.273147 1.14485 9.69673 0.796759 1.91556 5.07898 4.24743 3.60554 1.72891 2.55048 5.17415 0.627441 2.38819 0.859155 4.55792 0.643847 8.04797 3.48457 0.341033 4.42766 3.78214 2.7895 7.26441 4.96779 4.05977 0.494133 1.67328 2.27665 0.69188 7.7206 0.257617 8.7929 3.62134 2.7669 1.81065 5.12011 5.08644 0.627441 0.706857 7.91735 0.725505 2.7669 2.83676 5.20672 2.56573 6.79802 3.01325 1.03887 2.94837 4.56121 1.37585 1.43337 2.79242 3.59754 0.935303 5.94699 1.17168 4.20136 5.06386 2.43339 2.94947 1.50608 3.3521 2.38758 0.735473 4.50343 6.1993 0.799335 8.88065 0.759066 1.69402 3.6311 5.74302 0.906691 8.31738 0.930892 5.73895 1.06284 2.5998 1.07354 9.01127 0.264956 3.85257 7.64556 1.39458 7.92597 1.01506 0.810582 1.69852 6.34945 1.26975 0.905359 3.16049 2.34782 3.44719 5.00086 5.21854 2.97328 2.331 2.18682 2.54635 0.99174 0.80319 4.74365 5.05517 0.525919 4.78628 2.41413 6.78418 3.11026 4.20584 4.47842 3.92815 2.52029 2.17568 5.62125 0.524087 0.584168 2.56205 1.27598 2.80629 2.64136 0.380794 1.45425 1.05857 4.47842 7.46613 2.48389 0.26103 12.3839 3.3462 0.868575 6.43347 2.22411 6.04173 3.00254 5.00086 1.58963 3.40668 7.98032 0.165016 6.11335 3.11026 0.74598 3.38406 8.09441 4.25838 3.55519 1.28451 2.14792 5.11198 4.75901 0.993782 9.4977 1.09126 0.661188 1.86983 5.00053 3.29284 0.094012 0.842375 2.62296 6.65343 2.56931 2.14085 5.01769 3.09246 0.343995 1.0698 6.38258 0.934331 8.80555 2.15081 3.92815 1.05857 2.28385 2.56931 0.288261 10.6238 5.82897 4.33281 5.67051 0.137094 7.10575 2.93663 3.24078 6.10354 1.78426 5.7645 9.24866 8.13008 1.79757 5.01769 1.90456 9.17154 3.82835 6.91482 0.852974 5.74795 3.52596 3.6274 1.21559 3.28153 1.28306 2.01556 2.72553 1.25414 0.894716 2.79792 0.928341 0.285267 4.33281 4.28131 2.32303 4.55721 3.78036 7.24446 2.53811 4.05027 0.81647 2.48087 3.36974 4.07293 5.55504 8.50462 7.60722 0.565249 2.57914 3.25232 2.67687 2.38071 1.09577 1.2116 6.79367 0.510832 0.286009 2.45735 1.09663 3.33072 4.69534 11.0875 0.393984 1.59136 1.86924 4.48228 1.20361 2.30561 9.01127 1.774 5.35187 1.53291 0.799335 1.97144 8.33753 1.6883 6.59377 0.053271 6.18861 0.822465 0.101832 0.648589 2.01609 0.820486 8.71372 1.0964 0.912329 5.47741 1.84362 1.25209 1.89299 10.8308 0.855384 2.43339 4.82857 4.63867 1.56481 2.95442 0.645445 1.21559 6.76763 7.27301 0.957104 8.27737 1.48146 6.91482 2.75134 0.725505 6.53306 7.56091 0.18887 2.28313 1.81065 0.857627 4.72749 0.883448 4.36013 1.77387 8.73901 0.823656 9.5982 1.66255 7.24759 0.966865 1.75741 3.49648 0.290781 1.62849 3.06403 5.23693 4.52208 0.851027 1.69495 3.48375 2.09698 4.82857 5.06386 4.09952 1.79904 3.80152 4.05167 6.79802 0.170859 10.4357 1.31531 1.76958 2.95174 7.72797 1.93377 3.60656 6.12044 1.82959 0.671895 3.68759 0.414328 1.89158 0.296689 8.73827 1.2468 3.01029 9.5982 2.04875 7.05527 2.36155 0.687495 7.31783 0.921028 2.37287 5.0844 1.79585 2.54635 1.48744 3.58457 0.397885 2.79221 1.69402 3.36129 0.478274 2.44894 3.83664 5.96096 2.51467 5.4859 0.737785 1.91329 7.38707 5.74146 1.72891 1.06606 2.58529 6.5621 0.380794 7.83043 1.6902 3.46449 3.54249 2.42108 3.49091 1.75741 0.990111 3.08654 1.72824 5.07898 0.202605 8.78981 0.689314 1.48744 2.18682 1.082 0.167581 0.930892 7.01276 1.54882 1.37277 5.12009 3.13629 7.86516 0.170067 11.668 5.31084 6.53222 0.46684 4.62137 2.86464 3.4749 1.16969 13.7216 3.81959 9.18149 0.678966 1.46988 6.09987 1.88893 10.4581 1.88926 10.1914 0.466681 7.98032 2.68105 7.32485 1.03887 1.56358 1.2116 0.825393 11.2921 0.158661 1.84362 6.44123 1.54536 2.54798 0.676561 0.359977 0.325618 1.69495 4.20136 0.430633 3.34802 0.811257 8.67406 0.279505 3.35655 0.94268 3.06258 3.80304 1.31309 10.7176 4.8169 1.01873 3.338 0.744781 7.917 3.08191 1.13636 7.95686 0.51726 3.22351 6.04955 0.69188 6.18861 0.718752 7.22329 5.29513 1.62015 0.840187 0.202605 4.13964 0.906691 4.16176 1.09928 8.04797 1.3289 8.33753 0.21841 3.49725 2.82314 4.13686 4.10483 8.73901 0.824366 10.4581 0.534738 3.3305 3.38406 4.28264 5.21736 1.05829 1.25936 1.6902 2.5607 0.273147 1.88889 3.16782 2.32358 5.60933 0.648589 8.79605 1.55302 2.17568 2.11117 5.00916 4.00936 1.55302 5.39503 1.10108 0.802166 4.59742 5.62125 4.62854 0.523018 2.00217 5.2633 0.66945 0.0431927 0.26103 7.21113 2.79182 2.85399 2.7382 0.647794 9.44452 4.27076 1.14673 5.79347 1.60948 3.83664 0.544049 4.11432 0.680458 1.01506 3.18478 2.28034 6.83321 0.513673 6.37962 7.24759 0.828669 3.29915 7.2938 0.966865 7.2938 1.10774 1.75831 5.57438 0.670135 0.990111 6.02832 2.48601 4.48411 6.41476 2.47659 5.50321 0.530647 4.80211 2.47324 0.847289 0.780565 3.38678 1.1982 1.63741 6.44505 0.222498 9.29163 4.71512 0.841222 6.02832 2.16437 6.80034 3.33296 6.46128 2.45154 1.74404 3.77084 2.98697 0.38754 1.36782 1.94295 2.95174 6.85885 0.927528 0.218307 1.31309 1.64583 2.62342 2.7895 1.48759 7.56091 3.04609 6.67759 0.15607 3.76651 0.527945 4.01299 1.53322 7.22036 4.68258 6.36151 6.44123 5.47741 9.37897 4.59569 11.0875 0.521542 1.99388 4.20016 0.569229 1.43337 9.98601 1.53954 0.780565 4.79918 5.71399 0.163175 2.24749 4.62042 0.894716 4.3075 5.16444 1.53291 2.23073 0.993782 6.79267 8.88065 2.06401 1.53322 4.32515 4.56121 7.53132 3.84327 6.03696 2.20952 5.30352 0.94268 0.282298 0.170859 4.00968 7.08469 1.49069 0.151234 10.2617 1.35568 10.3342 0.857089 2.3665 2.29079 2.36018 2.4678 0.264956 2.30561 0.455952 4.17136 4.41053 0.192831 1.71967 1.20992 0.877569 7.09451 2.77318 7.98595 0.788008 2.69257 4.07497 3.05384 2.39454 4.88859 1.93175 0.921028 0.113661 3.18004 3.16777 3.83522 2.30809 4.43556 1.04408 3.13629 1.18304 0.444529 11.4146 5.00053 3.98289 3.43968 0.376359 5.906 0.901954 5.16281 3.91007 1.09126 4.20067 1.774 1.3289 2.44324 6.07951 1.0698 1.16077 2.31641 0.661276 3.88422 2.39619 1.43984 0.790034 5.982 8.71372 2.53775 7.59462 1.88676 1.50763 9.72998 1.54536 9.37897 0.912329 0.830985 0.671895 0.992633 1.04711 2.78307 7.05521 0.397885 9.05186 2.31641 6.22455 3.00767 3.80476 6.46769 0.544049 2.44894 3.81505 3.0609 4.86851 2.95677 6.47155 1.17398 7.44933 3.59878 0.439033 7.60722 0.415633 0.811257 3.78214 5.97088 1.96217 3.37144 2.44324 1.19741 1.68264 0.93474 6.06579 3.3097 8.23945 0.340849 6.47155 0.420524 3.78036 0.472593 7.64556 1.93925 7.865 2.36018 7.5133 5.3408 4.8169 0.987944 3.08654 0.670135 8.17341 0.926183 6.78418 1.03169 4.48228 4.9515 0.678966 0.610538 4.55075 5.25678 4.9506 0.600082 9.69673 0.279317 7.38707 2.51328 4.3216 2.7382 3.53278 6.9383 3.77953 3.3521 2.29044 0.687495 2.1405 0.417579 0.311848 3.49183 0.832605 3.93158 1.19266 0.523018 6.46678 4.68223 1.4265 1.28451 7.11497 5.83828 2.85936 4.70708 3.86906 1.10956 5.2633 1.03265 8.80555 0.836462 1.00917 4.86851 0.731325 1.93925 0.806945 4.82627 4.46259 7.59462 0.843231 2.45735 0.101832 6.33914 5.39503 8.79605 2.69755 7.8866 1.89158 3.41418 0.93474 1.51971 4.0715 0.530647 3.59827 3.12172 0.571272 5.72504 3.78205 0.244353 5.56775 2.11117 1.45425 2.42108 0.891523 4.10334 0.746687 3.92722 0.923627 3.98673 2.73281 5.27074 2.55819 5.7645 3.32443 3.14197 4.79282 0.143616 4.50343 3.69983 1.62849 8.37008 5.01114 6.72777 0.917106 3.94627 1.06284 2.01686 5.16444 3.4135 0.957104 0.825626 2.18955 2.01258 2.32065 2.47281 2.5107 3.45132 7.65209 1.31883 7.74686 0.622847 4.09952 2.56573 1.55483 3.68759 0.830985 1.0964 5.982 7.52409 0.353975 6.57516 0.702544 4.16731 0.480593 6.59377 5.74478 5.12396 0.883448 0.547206 3.84389 0.81647 0.438569 0.575797 10.893 0.769494 2.69257 7.25771 1.04711 1.72979 5.85469 1.12508 2.9252 0.802166 2.09795 3.04467 0.681801 1.49017 2.96069 3.01054 3.16777 7.5234 0.521542 4.69534 8.23189 2.256 1.64921 2.68003 3.06258 5.30352 1.43935 3.29537 4.73895 0.575959 6.49186 3.21645 4.67522 3.6735 4.79434 1.55231 6.76763 3.6274 6.51952 6.17906 3.22351 1.86543 0.628493 9.17154 2.38819 5.08644 4.29819 2.47801 2.1819 1.19337 0.473217 3.97608 0.515165 4.48411 1.06655 3.24078 4.59512 1.54846 4.29819 5.12011 2.28313 0.594165 11.668 6.11335 1.65961 7.46613 4.20584 8.27818 2.26449 2.72553 4.04914 3.60656 2.23073 5.35187 4.20067 9.4977 3.46478 2.51467 0.279317 2.85399 2.1203 7.05527 4.65405 0.517203 3.83522 3.01054 1.63473 2.79242 0.163175 0.856638 4.54878 6.22455 1.16077 0.343995 6.13669 0.923627 8.0066 1.77523 2.72789 2.18701 3.45132 1.00387 2.79182 6.343 2.98697 0.332166 3.53278 2.36155 2.1203 3.46478 2.04875 1.93175 3.34843 4.35799 5.4859 2.29044 6.1993 0.143616 0.915812 2.40743 0.113661 7.31783 0.547206 4.72749 6.19944 0.30871 8.83752 3.20626 4.89148 1.59136 5.57642 6.55181 2.21874 0.561189 4.07247 5.00916 5.56775 3.85128 3.67583 0.96455 4.17136 5.40884 5.14066 1.31213 3.18478 1.17683 6.49186 0.160801 5.15942 4.79918 0.847289 2.76186 4.05465 2.9312 8.67406 0.415633 8.50462 1.01451 0.137094 1.02169 7.53132 2.94837 7.32485 2.65828 0.66094 7.68615 2.57114 3.66025 2.24749 2.01686 3.19047 0.053271 0.480593 10.5405 0.659346 1.31531 1.78399 0.779746 6.30761 0.718752 1.57661 2.11891 2.59351 3.85128 2.30121 8.84623 1.19266 6.41728 0.654952 2.21874 0.244353 3.88929 2.85936 2.00217 1.13362 7.76653 0.771095 0.444529 0.985473 1.76775 7.87537 0.333379 7.84829 4.43556 1.65101 5.06582 0.46684 1.0007 1.28306 1.09663 0.843231 2.53775 2.85284 2.1405 5.5526 7.5224 2.51328 1.91329 4.09262 1.34759 4.50349 4.06771 1.53047 4.19346 0.471791 4.25838 3.2863 0.225045 8.56422 6.59094 1.25209 0.158661 0.998372 4.9506 4.29178 4.65263 8.73827 1.8702 6.07363 8.19525 2.40475 2.67759 10.8308 2.71812 7.09451 0.750524 6.70567 3.25523 8.15738 7.37953 4.03933 1.38514 0.0333698 3.8472 6.75756 2.57114 0.966736 2.82188 1.56481 3.21813 9.94434 1.05066 0.859155 1.19337 7.06126 0.803243 0.706165 7.06383 5.05517 0.926183 1.45774 5.07661 3.55902 5.5526 6.46678 4.62854 0.591365 1.58105 6.09987 4.96699 3.20626 1.51748 2.09198 4.16731 6.16472 1.4557 10.5405 2.27529 6.96802 2.82314 0.70546 6.43347 3.68872 1.63741 0.798399 3.7793 6.5155 0.279118 1.97216 2.27529 0.868575 4.04852 3.59827 5.50321 2.30121 5.40884 0.455952 2.71812 5.76648 1.15386 0.222628 0.950939 0.298234 7.24446 0.420524 2.95677 1.00917 1.457 6.30497 3.88929 4.10334 5.15058 4.70708 0.664208 4.32473 0.856638 5.71399 5.15942 0.510655 0.469536 0.053671 0.966736 7.68615 1.77501 0.705075 5.20672 4.42829 2.55048 3.54766 4.22502 2.60536 2.3441 2.49102 0.832605 1.76775 6.65872 0.606735 0.828669 1.66255 3.01029 0.610795 0.844673 0.857089 2.43623 0.96455 4.51331 1.48421 6.10626 3.87247 4.41053 2.30086 4.29178 5.25678 2.35864 2.80629 4.91397 5.38991 2.74809 4.0715 3.80304 4.73895 3.32454 3.04245 1.64583 0.754914 4.13413 6.79367 1.56358 3.01325 4.05167 1.97216 4.0359 0.901954 4.13686 6.96802 3.40113 1.34199 2.14211 4.30946 1.13636 4.13652 3.4135 4.3075 1.25414 2.26449 0.412194 8.27737 0.591365 7.21113 2.48389 1.65961 0.165016 1.47914 1.10915 0.826756 2.256 2.26777 6.2444 4.52208 1.63386 3.54766 3.49183 5.40279 0.610795 1.2468 4.65263 1.08348 5.68591 2.26931 0.257617 0.749994 0.852974 1.48146 0.412194 8.27818 1.93377 7.8866 1.33399 7.59736 2.63997 0.849876 1.34199 10.6438 0.985473 1.18304 5.12009 5.24802 6.65872 0.830049 9.44452 2.87255 0.633405 8.15926 1.26601 0.744781 4.95289 4.13652 3.08191 2.27665 1.73219 1.15386 0.585528 1.07151 0.534738 1.88893 2.18903 2.84855 1.31207 7.73836 2.79303 1.61387 2.40475 2.98525 5.64221 9.94434 3.16894 5.10166 0.934918 3.32443 1.78426 0.968106 0.225045 0.926358 3.43968 4.29996 0.935303 3.90694 4.82627 0.286009 3.59105 2.80154 4.62137 5.06582 5.26454 0.42415 4.02737 5.70497 1.45774 0.610538 9.18149 5.51176 0.15607 1.39513 1.86543 0.51726 0.728172 6.51952 3.52596 0.950012 6.80034 0.0246728 0.221781 4.06771 2.0236 1.79904 0.622847 1.54299 1.33154 0.53053 4.73026 4.65405 4.32473 2.69039 1.2112 6.5621 0.467936 4.79282 0.85396 3.86316 0.928341 0.439352 3.8472 4.63867 2.09698 6.6507 0.826756 9.53465 0.450417 6.34945 4.40532 1.64921 6.57516 6.22057 6.58185 7.66873 2.86446 8.7929 2.26931 2.69755 2.74809 3.93416 4.96779 2.10055 1.71967 8.47381 5.15058 0.891523 3.54249 0.679168 9.36217 3.86906 3.82706 7.09324 1.93574 7.434 3.26497 7.57942 2.78307 7.25771 0.788008 1.09798 0.376359 3.59105 0.510832 4.59569 7.45315 0.749994 7.7206 6.04955 6.17906 1.90456 1.21781 1.50763 1.22557 1.49017 0.66959 3.17394 3.49648 4.2551 3.23086 5.50503 2.73281 0.482784 9.86014 5.97126 0.746687 1.91491 1.88889 8.44101 1.33012 0.151234 5.47167 2.67144 0.333379 3.28153 0.645445 6.71812 4.55721 6.63207 2.83302 5.57642 0.393984 1.07354 0.472593 0.978828 1.33399 1.11423 3.05213 5.4169 5.85469 1.47914 8.09441 3.3305 6.79337 1.10915 6.79337 1.25936 3.95825 9.53465 4.48803 4.74365 7.13552 0.798399 1.1982 1.41083 7.22329 6.30761 5.05792 8.3521 0.757548 5.75028 2.18955 2.33042 3.04609 3.05077 5.07661 5.70497 1.07504 0.317486 5.69106 4.96237 4.59512 2.93663 2.55819 0.467936 2.58529 3.21645 1.17683 6.37962 0.63624 2.14211 0.849876 2.62648 0.603774 1.03169 2.41413 7.55964 4.37324 1.13362 2.69893 1.35568 1.20361 0.934553 2.97328 4.48803 3.38678 0.647103 1.49094 7.37953 1.35248 6.11278 3.66897 0.930009 4.22604 1.72875 5.29513 1.41083 1.06851 3.04467 7.24254 0.647103 9.29163 2.07826 2.45154 2.06285 6.77251 0.982539 3.35271 3.16876 1.33027 4.36013 5.12396 1.66739 3.7793 7.13552 0.80319 5.0823 3.16894 0.499491 7.86516 1.04408 7.84829 2.67144 4.08056 0.21841 1.97144 5.74302 2.62332 4.86996 0.053671 9.41049 2.98525 8.19525 1.89299 2.82188 0.469536 4.55792 1.05066 5.64221 9.41049 0.664208 9.57151 1.85299 6.28886 2.69039 0.625842 10.7176 0.218307 2.93718 8.96258 1.32443 4.78628 1.3131 1.88926 0.824366 1.77387 1.33027 0.642045 7.55964 2.15061 9.00338 1.082 2.331 0.934553 8.15738 0.272368 5.0823 0.99174 1.79585 4.49387 5.10166 2.28385 12.3839 0.0431927 2.28743 9.24866 2.14085 1.11423 10.6438 3.40113 4.95289 2.08772 0.66959 7.5234 3.18004 2.40743 7.36012 8.96258 0.836769 0.706857 0.705075 3.54113 0.757548 6.66486 2.01444 0.837916 1.93574 4.7445 2.62648 2.63997 6.18676 0.776676 5.32341 2.86464 2.80154 3.06693 2.53811 2.281 7.45315 0.569229 0.594754 1.42286 3.80476 2.4042 1.46988 4.9515 1.86924 4.89148 4.96699 2.76186 2.47324 2.40621 3.37602 2.67687 6.23456 3.58457 0.689314 5.89201 0.661276 9.05186 4.27076 0.830049 3.338 4.69407 0.38754 6.343 4.13964 7.01276 8.31738 0.478274 9.36232 0.094012 4.22229 2.4042 3.81505 0.439352 2.79792 4.62042 3.66025 6.75756 3.92722 5.97126 1.64133 8.0066 0.282298 0.031338 3.6735 1.93727 3.82706 2.20257 1.78399 10.4357 1.27598 8.4429 2.39619 0.820486 6.59094 2.30086 2.33042 0.825626 2.75134 3.82835 0.628493 1.39513 6.67759 1.74176 3.7532 4.90294 7.44933 3.38938 3.59878 4.90294 0.595483 10.893 4.42766 0.881177 5.0516 0.565089 1.5656 5.97088 3.38506 0.279505 0.625842 3.00149 3.4749 5.32341 0.981537 10.6214 2.14399 2.37287 3.00767 4.54878 1.34911 0.777782 8.49798 0.169036 3.66897 2.56289 1.74404 2.07826 0.222498 1.99388 2.68003 4.40532 1.69852 6.22524 1.94295 8.49168 0.240528 4.00968 7.72797 0.702544 7.66873 0.773064 2.38758 3.77953 0.556839 6.16472 1.32443 6.66486 3.05077 4.01299 0.603992 1.16969 3.00149 0.222628 7.73836 5.23841 1.09662 4.35484 4.30946 0.63624 0.513673 3.03904 4.79434 0.728172 7.95686 5.38989 6.71812 2.95442 0.619435 2.28034 1.31213 3.93158 2.49102 5.07093 6.41728 4.05465 6.23456 3.25232 6.32881 6.44505 3.68872 0.410048 5.11198 5.53204 0.777782 4.37324 0.642045 3.16876 2.75601 7.76653 0.287353 2.53764 0.482784 3.98673 1.00387 2.5107 8.36914 1.16792 7.64096 0.392666 3.52176 5.23841 1.31207 3.33072 7.5224 1.58105 2.26777 8.23189 2.59351 6.20985 4.51331 3.67583 2.29079 9.04251 1.31907 0.806945 7.5133 8.3521 4.8855 2.01444 4.00698 0.681801 1.06851 2.62342 3.04245 4.75693 1.20992 2.10055 7.26441 3.36129 0.759066 6.79267 0.842375 9.36232 0.389134 8.17341 5.57438 1.22916 7.08469 0.240528 3.37144 2.29191 6.38258 6.07951 3.55902 5.69106 2.86565 1.16792 2.84855 0.900862 2.18903 10.1914 1.3131 0.525919 7.06383 0.900862 2.32358 1.22891 3.23086 0.359915 0.767719 2.61374 0.788377 0.288261 6.65343 0.765292 1.13339 2.01609 4.00936 4.07247 7.70961 1.08348 6.07363 5.04527 3.5864 2.45428 1.20959 7.9415 2.38071 3.37602 2.40193 0.987944 7.917 1.26601 0.475588 2.35601 4.24743 1.72824 2.13565 3.36974 4.93101 1.1986 0.246936 6.03696 1.39547 5.21854 3.00254 0.466681 1.09577 7.9415 0.798893 5.01114 5.73895 0.167581 9.00338 3.95098 3.34843 4.88859 0.517203 4.73026 1.09718 7.65209 2.18701 7.24452 0.825393 1.42573 8.31388 4.2551 0.851027 6.2444 0.311848 1.68264 1.91258 6.18304 1.12508 5.4169 0.556647 4.91397 1.51971 0.737785 4.35799 3.95098 0.53053 6.28886 1.70147 4.09262 2.38937 7.10575 1.01451 5.55504 0.439033 3.38938 0.575797 0.992633 1.82959 3.90694 3.59754 1.63473 2.96069 1.22557 1.88676 4.46259 0.359915 9.86014 2.53764 1.36963 7.05587 1.34641 0.645879 0.30871 9.04192 0.585528 5.76648 3.25523 1.75848 1.1986 1.90035 4.7339 5.31084 0.594165 0.18887 1.48759 0.494133 3.19853 4.99041 1.5203 8.56422 0.968106 6.10354 1.06655 2.48601 0.841222 3.84389 8.83752 0.645879 4.93101 2.48087 2.86565 0.317486 4.70913 3.54807 7.64096 2.69893 7.87537 2.43623 10.3342 5.53204 2.14792 1.4265 0.333671 1.18208 8.49798 4.50349 5.29085 0.754914 3.80152 2.0236 4.80211 3.78205 3.48573 2.40193 2.40621 1.93727 4.67522 0.603774 4.7445 7.09324 0.332166 6.85885 1.76958 0.659346 1.4557 0.556839 6.9383 1.18208 8.26162 2.89585 0.67533 4.08816 0.930009 0.169036 6.19944 0.857627 4.10483 1.07151 9.04192 0.950012 8.05434 4.19346 1.5203 4.71512 2.35601 6.34676 0.473217 4.96237 1.06606 3.60554 4.20016 6.22524 0.810582 0.680458 5.77247 0.594754 4.04914 4.28131 5.82897 2.38937 6.12044 0.414328 7.52409 0.790034 1.21189 6.06579 3.41418 2.3665 0.844673 5.40279 3.32748 0.548713 9.04251 3.76651 5.51176 5.74795 10.9086 2.59327 7.70961 0.561189 0.654952 5.07093 2.3441 4.1667 1.78604 4.03933 1.49094 0.982539 5.63119 1.91491 5.27074 5.50503 1.22891 3.16782 0.556647 3.05213 2.08772 1.73219 1.67328 2.86446 5.38991 4.62725 3.5864 0.892588 3.86316 0.633442 10.6214 3.1717 0.64313 2.54798 7.05521 7.57942 1.36782 4.69407 1.01873 5.3408 0.389134 8.49168 4.70694 4.22604 4.08816 6.29949 3.29284 5.906 1.09798 2.281 4.22229 2.64136 2.35864 4.55075 1.14485 2.5607 7.83043 1.34911 6.13669 3.09246 1.03265 1.31907 0.548713 2.39812 4.07497 0.769494 0.595483 3.7532 1.38578 6.86927 2.56205 3.29812 3.3097 1.21189 1.43984 8.4429 1.13573 3.64062 0.826595 6.30497 6.82712 1.18001 2.89585 3.02628 1.55483 1.37585 4.32515 6.36151 0.475588 8.15926 1.75172 3.97608 6.34676 1.10956 9.36217 3.10267 8.13008 2.28743 0.66945 0.892588 5.04527 1.8702 0.296689 0.823656 3.49091 1.91556 5.74146 1.2112 4.00698 6.18676 7.59736 0.978828 1.72979 1.2251 5.63119 6.77251 0.516502 0.474377 4.09618 3.46449 5.60933 0.765292 2.62296 1.79757 3.10267 0.679168 1.75831 6.86812 1.54882 0.499491 5.47167 1.49069 1.22916 3.32748 5.68591 2.45428 4.62725 0.981537 2.39812 0.776676 4.07293 2.13565 3.84327 3.35655 3.38506 1.43935 2.20952 0.246936 1.75848 6.70567 6.26092 0.221781 8.52751 2.87255 0.647794 4.3216 1.53047 0.643847 1.19741 3.88422 5.89201 8.78981 0.840187 6.62575 3.1717 3.26497 7.98595 4.59742 2.9252 6.18304 8.49178 0.524087 0.371953 8.84623 0.950939 4.35484 1.95608 5.21415 3.92357 3.06403 3.69983 0.735473 0.773064 6.58185 3.34481 0.031338 10.2617 1.33012 5.38989 5.14066 0.575959 4.0359 0.279118 2.47659 1.53954 4.01802 5.16281 7.24452 2.72789 0.796759 0.600082 0.998372 11.2921 3.41127 1.53717 3.77084 2.56289 6.11278 5.05792 0.779746 2.20257 7.434 0.837916 4.8855 1.33154 0.838572 7.11497 3.55519 0.471791 8.05434 1.63386 5.23693 3.92357 3.63184 4.22502 3.19853 4.05977 3.93416 1.27159 7.29206 0.836769 2.93718 0.927528 6.53306 7.91735 3.54113 1.77501 3.19047 2.01258 5.