<VTKFile type="UnstructuredGrid" version="0.1">
<UnstructuredGrid>
<Piece  NumberOfPoints="    3265" NumberOfCells="    2392">
<Points>
<DataArray type="Float64" NumberOfComponents="3" format="ascii">
14.8679 37.3344 0 
18.0296 15.4042 0 
-20.5543 -24.8172 0 
46.1875 21.6193 0 
19.48 5.85769 0 
-25.1114 2.219 0 
-33.8074 34.7386 0 
0.595444 -10.4144 0 
60.3318 -4.0944 0 
4.32434 -56.2298 0 
30.1967 -1.77732 0 
6.83089 35.6957 0 
-28.5013 -0.644814 0 
55.3788 -13.902 0 
32.481 30.9452 0 
6.77231 -22.1598 0 
-47.0976 40.1563 0 
-14.7907 38.9655 0 
-53.6896 27.9853 0 
-51.6033 30.3595 0 
-8.22182 60.5587 0 
41.7582 17.3223 0 
59.8597 1.14915 0 
13.6036 2.2767 0 
-7.13086 31.2291 0 
-25.7561 25.0648 0 
-17.5497 -25.03 0 
16.6328 -37.6007 0 
19.6247 -20.8755 0 
-2.79936 -49.3262 0 
3.91354 -41.276 0 
-37.3462 -41.4486 0 
-21.3851 -40.6463 0 
-40.2174 29.8286 0 
4.31581 -37.5589 0 
-14.3628 -31.1852 0 
-17.5604 55.2815 0 
20.0517 14.4531 0 
-11.1135 9.76155 0 
-46.0046 6.25013 0 
-35.9376 -42.3108 0 
-16.5792 -44.6919 0 
-0.771659 -22.4373 0 
-48.3528 -24.7056 0 
-27.8903 44.4825 0 
-11.8329 50.1566 0 
-26.5219 -0.802076 0 
60.6756 11.5206 0 
10.9936 46.506 0 
-26.5579 25.7487 0 
5.34215 43.0517 0 
-43.5455 -23.1564 0 
-55.0758 -20.3202 0 
42.5002 5.94241 0 
-40.3896 32.6328 0 
25.1489 48.0031 0 
36.4388 42.1289 0 
22.7125 21.6014 0 
15.0921 -42.258 0 
-11.1426 33.6033 0 
-42.0017 47.6861 0 
50.8135 -24.9368 0 
-30.4037 7.60829 0 
-8.91343 -0.796747 0 
-25.5274 53.6331 0 
33.4286 -18.3524 0 
52.6237 -22.8468 0 
-10.646 -45.9508 0 
-2.32672 -44.3966 0 
-40.2524 25.8789 0 
31.5591 -8.2519 0 
-26.6382 -11.808 0 
7.44671 -58.0479 0 
-47.4574 26.7186 0 
37.3073 6.726 0 
41.7095 -6.02298 0 
-31.3013 10.0961 0 
-39.879 27.5449 0 
-9.6971 -44.7324 0 
16.0549 3.17127 0 
-7.75644 18.4801 0 
22.1721 33.086 0 
-22.872 -23.0097 0 
-42.3227 16.2267 0 
-1.95914 -17.9547 0 
4.0881 57.8576 0 
27.9377 -13.4994 0 
45.8387 17.5694 0 
27.7046 31.8125 0 
-2.72858 -45.7896 0 
-46.6522 -26.9272 0 
-14.7609 19.2512 0 
50.5704 13.3503 0 
17.1402 27.2586 0 
-49.6083 -20.7605 0 
54.669 17.7407 0 
5.14901 26.5385 0 
7.03005 -51.214 0 
46.3926 41.4648 0 
-52.9093 3.73278 0 
6.84062 -17.6367 0 
-4.63251 1.91315 0 
-31.915 52.4465 0 
-32.8677 -10.4661 0 
28.3458 1.75594 0 
-31.2423 -0.439943 0 
33.7303 34.1942 0 
24.773 -1.71882 0 
48.1592 23.0233 0 
-42.9407 36.5233 0 
-2.67544 -8.59837 0 
-39.6746 27.8523 0 
-16.5452 11.657 0 
60.7806 -18.2176 0 
37.2596 40.404 0 
-0.335218 -31.7498 0 
-40.8436 48.2882 0 
3.4114 29.3626 0 
-12.4514 -52.0064 0 
-5.7453 60.8583 0 
19.9625 49.1755 0 
16.6057 -1.44318 0 
-53.3564 29.169 0 
-2.35496 26.2556 0 
18.2128 -54.5722 0 
-3.57143 -5.11816 0 
-37.0516 -48.7336 0 
40.0429 23.1858 0 
10.8896 12.5835 0 
-60.6348 -9.93428 0 
26.2819 52.6263 0 
-50.9874 -2.82826 0 
25.6044 9.45162 0 
-27.4354 -43.5887 0 
-9.1855 -6.06343 0 
-42.8873 5.90156 0 
-24.342 -44.9092 0 
19.329 34.6617 0 
9.723 19.8514 0 
9.01644 -5.64106 0 
52.0747 -2.8588 0 
60.0247 -3.46872 0 
26.2881 50.6568 0 
-14.4621 38.5928 0 
-28.3741 -6.80063 0 
-27.1218 33.1919 0 
12.1498 -38.5797 0 
-55.2629 -25.3391 0 
-58.4986 -4.36589 0 
0.480598 56.7644 0 
-51.2127 37.5621 0 
15.265 -56.2126 0 
-61.5899 -6.12242 0 
23.8638 -36.4497 0 
-46.0275 20.5887 0 
34.2318 22.3517 0 
20.8942 42.6032 0 
44.8991 28.1132 0 
45.7226 35.2678 0 
37.8847 15.2778 0 
-51.8681 -9.70534 0 
-28.4269 -33.9586 0 
45.3216 -1.16022 0 
18.9049 35.2161 0 
-49.0364 21.8189 0 
50.3902 -14.89 0 
43.7089 31.1088 0 
40.4944 -41.7528 0 
2.83219 40.3377 0 
7.27555 49.6915 0 
60.6113 15.8719 0 
20.237 25.1309 0 
-46.6424 3.12197 0 
16.6608 16.8844 0 
14.0506 -17.2306 0 
-20.7485 45.3489 0 
-53.3149 -13.366 0 
-22.3906 31.3214 0 
24.8347 -43.0487 0 
33.5824 -20.2879 0 
8.99435 -39.4352 0 
2.42718 54.6682 0 
-18.7289 49.6388 0 
-2.52984 9.70395 0 
-26.1985 44.3274 0 
-8.68076 51.6364 0 
33.2143 -33.6613 0 
-5.55433 12.7652 0 
25.5242 -24.8385 0 
-19.6111 -35.5743 0 
5.39476 50.5396 0 
33.6886 13.7844 0 
-12.8758 -38.8407 0 
-27.973 -16.713 0 
14.3911 41.0901 0 
40.3381 23.9001 0 
14.2512 28.1849 0 
-44.8927 20.5322 0 
7.83317 9.64445 0 
-34.0518 -35.8945 0 
14.2271 52.6879 0 
33.483 -10.7521 0 
-32.3832 26.7621 0 
-33.9868 -34.4154 0 
-8.94963 -25.8422 0 
-3.9891 33.142 0 
-22.6164 4.4797 0 
49.087 -39.5604 0 
-5.37007 -11.5858 0 
0.574363 -32.1204 0 
-11.318 -52.8656 0 
-42.8713 -44.0801 0 
32.2669 -53.0577 0 
16.5574 -2.36485 0 
14.7288 57.0037 0 
45.5743 -28.4235 0 
6.61266 54.2294 0 
-13.2012 42.7687 0 
-18.9222 29.667 0 
-11.3063 58.9524 0 
-31.9821 44.6649 0 
-61.4574 7.47624 0 
54.0687 5.77643 0 
-14.054 16.7641 0 
37.2994 -25.4316 0 
37.146 7.15916 0 
38.5052 -26.9768 0 
35.5355 37.2268 0 
35.8146 -47.3323 0 
-10.016 52.3029 0 
-5.08473 46.3395 0 
37.9302 -4.8105 0 
-31.1908 8.4314 0 
-42.0751 15.6753 0 
51.1482 -22.5129 0 
-37.7882 5.57864 0 
14.0129 17.9343 0 
-17.5757 16.4074 0 
-54.4065 26.7571 0 
-47.8056 -37.6307 0 
-28.2018 -39.7386 0 
-2.29153 48.2416 0 
-43.7754 -16.1828 0 
16.4761 -2.62315 0 
50.7463 -25.8214 0 
-7.97891 -19.01 0 
4.86692 28.441 0 
-12.7569 -48.5503 0 
-21.8574 42.5163 0 
-13.9278 -30.3254 0 
-59.1394 0.76484 0 
19.4666 14.775 0 
16.9531 16.7973 0 
-40.438 48.3146 0 
17.3416 -48.1703 0 
-20.7678 -53.3651 0 
-40.7816 -33.5385 0 
-9.87803 27.6672 0 
59.965 -3.40626 0 
-33.3819 -33.2711 0 
-38.4514 -41.4022 0 
13.2113 -16.5463 0 
24.0825 29.7565 0 
50.8878 -2.5674 0 
9.0071 -36.8906 0 
37.1756 -23.4504 0 
-18.9335 23.031 0 
-31.2226 -48.4076 0 
-17.0349 1.92581 0 
43.3029 -20.8684 0 
24.1093 -9.9228 0 
-29.0992 -26.4651 0 
-32.8971 -5.16718 0 
37.4344 6.59759 0 
33.2272 21.9596 0 
-0.104965 -42.3183 0 
-39.6907 48.2679 0 
25.6041 -3.90673 0 
-25.3949 52.1788 0 
-13.7818 -11.3421 0 
-18.9154 40.5349 0 
11.21 39.9318 0 
-11.6996 -38.018 0 
40.0169 -10.3262 0 
20.7555 -13.9042 0 
-19.8247 55.5568 0 
55.5253 -2.30527 0 
16.5922 -1.53494 0 
45.2061 -8.4999 0 
-32.9249 22.1084 0 
-42.038 -4.73888 0 
-9.2389 -56.7073 0 
-7.6657 38.6863 0 
-39.3621 37.2641 0 
-31.4312 -48.1476 0 
7.71294 6.98177 0 
6.02625 -39.4208 0 
0.90389 55.5415 0 
-23.1644 31.7797 0 
-11.7415 -62.9799 0 
-16.4533 17.0037 0 
15.5806 43.3504 0 
-15.3851 -62.9141 0 
49.1302 21.1272 0 
-55.9067 17.8093 0 
43.1326 -36.0843 0 
53.4249 9.00378 0 
3.80013 29.3811 0 
19.8158 52.803 0 
-10.866 -11.171 0 
60.344 16.1669 0 
-19.2628 -2.56496 0 
-52.412 27.7907 0 
-6.92363 -32.0513 0 
31.5951 -11.1441 0 
-52.5821 9.58847 0 
-34.6192 28.4877 0 
-12.5565 -29.1438 0 
-41.3989 34.7505 0 
41.703 14.9437 0 
17.9889 45.8344 0 
61.4529 -14.6807 0 
17.9085 -41.2761 0 
49.3324 4.03029 0 
36.0276 46.4964 0 
-1.11419 -6.18763 0 
-21.0019 -17.9574 0 
15.0092 -47.653 0 
40.4049 22.2448 0 
-53.4401 2.75894 0 
37.0126 -25.06 0 
-42.0502 -4.78204 0 
4.59277 -17.9948 0 
-19.24 45.8827 0 
-29.1054 -17.0523 0 
38.4626 -39.8673 0 
-56.101 16.9563 0 
15.671 -33.1748 0 
-22.0005 -20.3766 0 
-42.199 35.0677 0 
-10.0424 59.8392 0 
-0.831314 30.9023 0 
37.1995 -24.5647 0 
1.78349 40.3482 0 
-14.1634 -63.1218 0 
-36.2006 28.1287 0 
-4.37346 36.7041 0 
1.47411 -19.9941 0 
-17.2795 12.2965 0 
56.3723 18.3635 0 
53.8429 8.10857 0 
-32.5856 12.0777 0 
-29.9794 13.2502 0 
-6.31272 -11.9006 0 
17.2372 -23.0194 0 
-32.2688 46.8529 0 
9.6697 61.5093 0 
-0.0389225 56.9314 0 
-12.4042 -28.6689 0 
-20.9072 24.3895 0 
11.9449 -12.2291 0 
4.77208 28.6151 0 
-25.5191 15.4693 0 
-38.7732 11.8154 0 
25.7676 -28.2459 0 
6.064 35.2596 0 
-55.9701 3.52574 0 
34.7967 48.2177 0 
-39.7949 1.62934 0 
2.20571 -0.954903 0 
-5.38596 -38.5207 0 
36.4528 10.9753 0 
12.3767 9.52088 0 
-36.0984 20.2717 0 
8.28724 -38.9043 0 
18.1226 -33.5986 0 
1.0416 47.0102 0 
46.569 7.93812 0 
-21.112 24.8068 0 
6.44874 -10.7913 0 
-44.2437 -6.50099 0 
48.9539 32.7825 0 
25.2088 17.2618 0 
23.3094 10.9846 0 
15.7895 -16.013 0 
-35.7589 20.4129 0 
-21.0641 9.13736 0 
44.9213 -15.1037 0 
-42.2429 -14.9291 0 
-15.6596 -19.6979 0 
-52.3131 23.4168 0 
-8.46165 7.20521 0 
16.9138 58.607 0 
-34.694 -13.1938 0 
33.7013 -17.3216 0 
31.1391 -8.09156 0 
-12.1038 9.64573 0 
17.99 -15.3952 0 
-2.18496 11.0454 0 
46.0296 13.7012 0 
-12.8532 31.9699 0 
-34.3627 -46.5175 0 
-6.74689 41.1709 0 
8.33631 -49.8809 0 
5.85321 -57.8612 0 
-24.0759 -53.6981 0 
-24.7257 31.2571 0 
-47.1174 20.8445 0 
-8.07511 -18.2382 0 
23.7844 39.2068 0 
-44.0858 -32.7733 0 
-10.458 11.6904 0 
7.97116 -33.5545 0 
-50.6206 38.5394 0 
12.9392 7.86099 0 
-29.089 37.4838 0 
-10.1745 -0.280973 0 
0.28933 18.2108 0 
-12.4535 -49.5215 0 
-12.0816 -2.92726 0 
29.4159 -48.8232 0 
-3.38218 0.316339 0 
13.9861 6.14586 0 
47.1934 24.206 0 
-31.976 -40.2411 0 
-5.04494 44.3645 0 
9.75969 -40.5788 0 
-13.3965 -19.3988 0 
-49.2612 39.557 0 
15.6913 26.9785 0 
32.5493 -53.5916 0 
33.4748 5.88931 0 
-1.05533 18.6265 0 
-18.6143 17.1643 0 
-40.2307 -2.30124 0 
30.1559 -37.1047 0 
-15.2267 -2.3586 0 
11.4381 -11.4157 0 
-45.9107 -7.49351 0 
-60.4353 10.1745 0 
-20.1395 -34.6137 0 
10.534 -56.5357 0 
13.7003 35.2757 0 
12.6323 -33.9758 0 
38.6714 -39.4543 0 
-47.3258 -39.4097 0 
-22.2952 -14.4052 0 
-2.71185 -37.5657 0 
-21.5225 -33.8066 0 
-0.383652 19.0356 0 
-33.2056 -9.45965 0 
51.0802 -23.5765 0 
-55.2687 -11.8211 0 
-39.4086 -24.1946 0 
47.2349 41.388 0 
36.252 -40.7243 0 
31.8093 -54.1249 0 
25.9332 -37.4181 0 
30.0881 -1.38195 0 
32.363 19.5737 0 
-53.6061 -5.28451 0 
-49.6736 -35.7479 0 
25.8571 -37.9931 0 
-0.486968 28.7661 0 
-0.780036 42.2101 0 
24.3038 -43.7829 0 
-0.0633967 3.52865 0 
53.4688 26.0327 0 
50.9801 12.9557 0 
27.7439 10.3635 0 
-56.8516 -21.3655 0 
2.6753 12.7651 0 
29.4639 -47.618 0 
20.7229 24.5512 0 
19.7528 -6.50132 0 
-16.282 -38.6594 0 
-3.02659 -40.8076 0 
-17.9804 30.6409 0 
28.1892 -31.1018 0 
5.44917 43.4268 0 
43.187 43.6627 0 
-9.06872 8.26659 0 
24.7743 -36.4645 0 
-20.5123 -10.7613 0 
5.37104 -62.0507 0 
-15.1753 -10.1137 0 
-13.4979 -12.4416 0 
50.8147 -11.8548 0 
9.64896 -25.0533 0 
-16.0359 -46.1416 0 
39.3973 4.88789 0 
-51.1717 -30.2451 0 
-5.47395 60.8147 0 
0.719765 -60.716 0 
[...]
<CellData Scalars="wall variable 0">
<DataArray type="Float64" Name="wall length" format="ascii">
2.02336 11.0969 1.14653 0.207473 8.01321 3.6638 0.428369 0.246304 0.432533 3.89764 0.69961 5.7587 1.34515 9.32454 1.16237 8.42377 2.79817 0.778489 9.42576 3.8337 8.61591 0.433517 1.47881 3.20413 3.09225 1.49552 6.60014 3.8392 2.07004 3.36557 5.54121 4.78119 2.49999 6.60262 0.941673 2.26275 1.36626 6.98142 0.203429 0.626202 7.76049 3.3351 5.41672 1.94925 2.89569 0.941673 0.663571 5.16082 0.401998 6.99171 3.88182 0.363864 3.38458 7.09689 1.66903 2.21772 2.2359 2.05892 0.732774 4.94112 5.49935 0.486287 1.36733 7.41252 0.479835 2.25837 1.47669 7.81682 1.12074 1.37355 4.07482 0.779038 5.94382 1.77469 3.18751 4.12727 1.99552 1.85681 8.66822 0.371722 1.42817 11.0168 1.0517 2.4433 5.19234 4.83806 2.17855 2.28702 2.30546 1.55013 0.228769 4.73129 0.689795 2.39957 1.1626 6.28824 0.0340087 2.73281 5.47423 1.69682 0.66443 2.22202 0.835163 8.90612 3.96632 6.02106 4.84843 0.549489 3.53712 1.95396 2.89509 0.872262 5.46271 3.36199 0.353254 9.04748 1.48715 1.67213 2.36917 1.05072 2.2783 1.84772 0.160925 8.00548 1.00323 8.24589 0.846786 3.33058 3.20867 2.69397 3.78894 0.483676 10.2374 1.79523 1.04977 1.15121 12.2096 1.5587 2.68262 1.23569 1.16449 3.34146 1.02288 6.16218 1.66887 0.483676 1.36359 1.02288 4.6091 6.05019 0.390107 1.12987 9.14843 4.11885 3.22535 1.0044 5.51686 6.58806 0.443682 3.53712 7.10974 0.481117 1.94435 8.61591 1.74095 5.70729 5.36131 3.66087 4.39871 1.57535 2.67615 6.63068 8.36257 0.376778 3.41374 6.37787 1.17457 5.15016 5.79668 3.42012 9.97685 1.40826 9.5409 0.563549 3.53426 3.00721 2.93769 3.52149 1.30628 0.936001 4.83835 0.291555 5.10486 4.5486 2.36467 7.84706 1.16449 2.22993 3.91705 1.7541 2.33457 0.471352 7.08201 3.89503 6.79462 2.79715 0.573873 1.91172 0.212472 2.82546 2.32063 3.30382 0.779038 1.07337 2.1263 2.27879 6.39454 0.132177 14.2946 0.823329 0.689795 5.27517 6.97977 0.261056 2.31464 1.17618 1.65388 2.34405 0.0340087 0.307498 5.1522 2.65011 0.733573 6.10206 0.194479 4.26567 5.36613 1.34759 3.68489 7.39583 2.28922 6.47155 5.35763 5.09044 0.224377 2.50454 5.80703 3.81756 0.115461 0.651285 13.2456 2.5039 0.563549 0.401127 4.43293 1.18182 2.13778 6.3442 3.8572 0.447071 1.30232 7.18763 1.13649 9.31852 2.26017 4.42146 1.34373 1.92914 2.96548 4.42128 0.492635 5.76593 5.83781 4.50865 2.26017 1.08455 3.68489 2.40151 3.83113 5.87295 2.70064 0.343958 8.79454 0.793612 12.2287 2.35563 9.89267 0.566988 4.35337 8.30566 1.15877 2.54866 5.44688 0.261056 6.55971 2.61249 1.0716 1.88274 6.63478 4.00225 0.492635 4.42128 1.45986 1.92633 2.82546 2.60196 5.20983 5.099 3.18416 5.16082 1.14612 3.33417 3.90825 4.2632 8.01321 1.67963 3.23001 6.0842 1.37 7.23053 2.64833 4.3108 0.732774 3.21544 0.680847 0.390107 1.34933 1.87597 1.52611 3.97232 5.19555 11.5826 3.78215 1.73568 1.39296 1.61706 4.16589 4.71413 5.61073 3.69662 0.78488 0.708225 7.16311 1.94435 6.91299 0.0660558 7.71505 1.12074 0.147474 0.930373 0.291555 2.62398 0.433517 1.02775 8.97208 1.2981 1.23263 6.86024 2.47167 1.72651 1.24277 8.99219 3.83914 5.70715 3.69662 0.85625 1.63842 4.85312 2.53196 7.34269 1.21023 8.89461 2.00959 8.30566 3.33028 0.675129 13.2456 0.364011 1.19735 10.1404 1.36763 1.03692 5.05198 5.23884 0.720754 0.30697 5.52508 5.71825 5.03998 1.48412 1.18462 2.42252 1.13217 4.3292 0.371727 1.99031 3.76783 5.83121 4.75173 1.0808 0.581393 10.3577 1.27082 1.67792 0.858904 12.0754 0.319186 0.774234 1.83576 0.733573 4.90391 2.22233 1.60985 9.10016 1.73081 4.72518 5.87087 2.0296 0.246304 5.76157 2.37059 2.63437 1.10318 4.95835 0.588856 0.77516 5.40067 0.392196 10.1661 1.67929 1.66599 2.27879 4.45219 5.71825 1.32419 1.00611 6.63068 1.53525 1.20793 9.90658 3.36557 6.47429 3.78841 0.504337 3.12891 3.44947 3.76038 0.431946 1.02417 3.44687 0.256867 1.20793 6.65712 3.20081 4.75004 1.41877 0.946528 2.47729 7.6266 3.11753 3.34292 2.30546 1.45523 3.31468 6.94726 3.41535 6.27053 1.48888 3.37625 0.573873 2.39154 4.46602 2.42252 1.43279 4.03063 1.96402 5.19234 1.57005 1.82953 8.73369 1.35667 0.237315 8.24391 2.01623 1.77469 3.20491 2.9598 3.82802 8.0478 5.7873 1.31739 1.49552 3.12891 2.78168 4.43987 0.602741 5.50828 3.502 4.23541 1.54573 14.2946 3.5401 3.03323 2.40778 0.980521 3.78894 6.68603 2.45344 11.603 2.36917 10.5798 0.340621 10.1408 2.61249 3.14789 3.57261 0.228769 1.98796 4.00225 0.444253 7.09689 0.177424 1.81503 5.76593 3.57261 4.66515 5.27517 4.73129 0.389127 1.61825 11.6128 1.0872 12.0754 0.398413 0.923962 1.4226 4.33757 0.995096 8.26661 4.74254 3.68918 4.72517 3.35601 0.872262 3.73559 1.39139 0.376778 4.4723 5.8146 1.36733 7.48536 0.514777 3.76783 4.77653 1.0044 1.00379 2.35614 6.02106 4.19775 1.23263 1.27995 1.10318 1.55839 1.42753 2.31531 3.87356 0.541712 11.0976 2.32829 1.05072 11.603 0.760845 1.63526 6.16218 1.36359 3.3633 4.67316 2.50454 0.411784 8.87563 0.389127 4.41687 1.02154 4.2632 8.29041 5.099 0.731711 5.10486 0.930373 4.73476 6.5912 0.569804 3.89503 1.92633 0.541332 6.94873 3.64034 0.94687 0.0658758 0.402895 8.60561 0.370042 1.57535 2.17769 3.51483 0.890203 4.08841 0.449217 5.22293 5.61677 0.322825 3.24607 2.02336 2.0296 5.3503 3.76753 2.09606 0.708225 8.07696 0.68702 6.98142 1.48412 6.96697 1.07337 4.07482 7.48608 1.18462 7.48608 1.37355 2.26648 6.82475 0.904113 1.43279 6.06611 6.54913 5.47423 2.11987 1.35337 1.29307 3.82802 1.64363 0.648729 2.83419 7.38057 5.22924 8.58605 1.65388 3.69339 0.588141 1.08388 0.92564 6.06611 2.73281 2.34405 8.58605 1.16886 6.4733 0.832073 1.40826 1.79322 1.7541 1.95218 0.855356 3.76038 0.535883 1.81016 2.49669 3.81614 7.03932 1.31739 0.894889 1.26361 4.0437 1.08238 1.2711 6.60014 5.73975 6.28824 1.62406 3.5469 0.651887 5.91276 1.34938 1.52611 1.11209 3.00562 3.42012 2.5039 0.278413 6.4334 6.86024 4.19775 5.80745 0.793717 5.6341 11.5826 0.613429 2.24641 4.91314 0.750647 1.5587 12.2096 4.36789 6.56145 0.262893 2.71413 5.63658 1.24392 5.09314 5.20972 3.59008 3.44286 3.22626 1.82953 4.95043 7.15134 5.06492 0.137345 1.23389 0.343958 5.19648 4.44654 6.31914 2.94755 6.09558 1.2016 3.24607 5.99859 2.80869 0.955873 11.0969 1.0664 13.067 1.39296 1.77638 11.3364 1.68205 1.42817 3.22778 2.94819 3.41535 7.46897 2.09165 1.00379 3.22535 0.787553 4.00414 0.771748 1.66644 5.78289 1.1413 9.08338 0.322961 0.914662 5.79637 1.69355 0.863484 1.80033 7.38057 4.06108 5.54121 2.89569 5.80703 4.67316 4.38461 0.474527 6.05131 1.07514 5.30353 4.61513 1.36763 4.92558 2.0459 1.55308 0.137345 8.25438 1.0569 0.648729 1.49063 0.244112 10.5565 2.9218 1.78251 0.974348 6.72625 8.97208 3.00562 9.04508 2.33457 1.79322 9.97685 4.45219 2.1263 6.96697 5.03998 0.504337 9.38758 2.81239 7.05583 0.96088 2.78168 4.85312 1.89121 2.54866 4.4793 6.01184 0.197562 0.174288 4.0093 3.78544 2.90639 9.08338 1.95389 5.83121 0.514777 3.96632 0.443682 3.8337 4.29431 0.408305 9.28955 8.14675 3.15427 2.09265 0.829163 0.44609 7.18899 4.04463 8.35112 0.500423 6.60716 2.0526 1.32825 4.21763 5.09044 2.56727 7.95867 2.93754 8.25023 0.923962 7.19893 5.70433 3.89833 2.48285 4.2491 3.48783 1.49504 1.83387 6.53518 2.87424 5.83048 5.05794 11.3003 0.367867 7.6266 2.56623 0.640982 5.64471 3.51483 3.44687 8.20185 0.787553 4.11885 2.86552 0.953678 0.278413 6.3442 2.9255 1.57362 0.65896 7.18538 0.733413 1.70668 6.1683 2.27525 2.47747 8.99219 2.99509 0.34417 4.83029 4.39871 1.40985 3.64034 2.94184 1.35815 9.31852 1.03399 1.25943 5.89044 0.969837 2.56727 1.11106 3.82762 10.4437 1.34933 6.05019 0.147474 7.81682 1.42829 4.73476 1.45986 8.29041 3.86053 7.21592 0.829163 0.673997 1.34515 4.98017 3.29749 3.05146 6.82475 1.71211 2.80869 5.6605 1.91172 3.37625 1.25825 2.43462 7.15755 1.62532 6.29553 3.48783 0.582397 4.93482 0.66443 0.884209 7.19165 0.777105 4.0437 5.97592 0.180699 5.51686 4.77653 1.99031 8.7878 0.490716 0.651396 7.42115 2.21772 2.59924 8.93195 2.46182 5.20972 3.94121 1.21023 1.10116 2.70687 2.43532 3.89833 0.501674 5.61677 3.64834 7.81136 1.5758 7.89368 0.906312 0.774234 4.2374 3.11664 1.99349 4.95835 1.27995 1.2981 6.72625 8.10675 0.481117 7.75373 0.799891 4.7941 0.615408 6.91299 6.60262 5.29491 0.162908 1.03692 0.716315 4.28188 0.476698 1.14612 0.663571 2.9598 5.20302 2.32063 2.08256 1.49063 1.64363 3.42902 5.53236 0.479835 4.00323 0.887083 0.0985691 2.137 0.237315 1.95218 3.91705 3.81104 3.78544 7.87033 0.613429 5.19555 8.6037 2.883 2.22645 3.43273 3.885 6.09558 1.72809 3.79585 4.79035 0.755613 6.96614 2.26275 1.5549 5.60238 4.75457 2.53196 6.01184 3.14575 5.73685 1.72782 6.92101 4.01794 2.25064 0.340621 0.892445 9.89267 2.07463 2.9254 0.744095 4.01794 0.354222 3.1629 4.72517 3.79451 1.48341 3.89632 1.49504 6.29553 4.60447 1.80546 2.3739 3.81614 1.15027 4.72518 1.02631 0.546786 0.582397 4.2491 1.71122 1.45523 2.28702 6.74579 5.04578 5.63196 1.92914 3.72062 1.96537 4.06108 2.83419 1.0569 3.59096 1.45175 4.78119 2.17769 8.36257 1.00611 4.21452 3.20081 0.367867 0.914662 7.39798 2.68262 0.262893 1.2744 5.50866 0.623114 5.16139 7.05583 1.5294 0.447071 6.35153 3.9766 2.22202 4.93482 0.546786 5.33842 3.61639 6.65712 1.53525 2.67615 0.370042 3.21878 0.863484 7.52628 4.75004 4.21452 1.32419 1.40995 0.261859 7.36525 2.66493 2.86552 6.58806 0.180699 0.716315 5.52508 7.05805 0.388175 2.61329 6.94422 0.261859 8.7878 0.371727 2.70509 1.16886 8.40412 0.891901 2.91091 0.679905 4.5486 0.731711 5.20983 5.9052 4.87767 0.65896 2.66415 2.94184 6.94873 6.18966 1.64201 3.76753 1.36626 6.96614 0.214987 5.33805 4.36789 1.15121 1.17129 3.37109 3.09816 1.81394 2.34137 8.35112 3.67535 0.408305 0.77564 3.34851 6.01291 0.549489 4.70938 0.726891 7.75373 7.10974 3.06213 6.13385 3.5401 2.80289 2.97904 6.44046 3.71426 6.37787 0.852899 0.0660558 0.615408 0.369237 2.68089 4.40503 1.70668 2.80692 0.760664 6.47155 4.20136 4.90856 2.99509 2.66415 1.57362 1.23389 10.5565 2.19618 8.79454 1.80033 1.94925 5.86148 0.602741 0.132177 8.66432 2.11987 5.81856 7.34712 5.91276 0.640982 7.02602 4.31838 5.1522 2.1056 0.369237 2.28922 4.21763 0.324727 5.36613 4.88657 7.67174 1.72651 0.235086 1.4386 0.567027 5.05794 4.29444 5.40642 10.1661 1.47138 0.797978 6.50982 2.68089 4.88657 4.26567 4.74613 0.057247 0.513104 1.69269 1.10116 3.33028 4.35337 7.70955 2.0771 1.12724 4.33757 3.64899 6.49711 4.71598 7.27043 2.97904 1.30871 3.74187 2.01045 1.74522 0.22679 2.04061 1.57975 1.22206 2.883 1.76984 8.15033 0.872435 6.77522 2.28246 1.24186 3.2092 2.79817 5.81856 0.651887 7.18538 4.87767 0.541332 0.758073 2.16828 0.569804 2.06397 0.714618 0.77564 3.15427 1.58985 3.60895 0.832162 6.79462 4.7941 5.88581 1.66644 1.97641 4.98146 6.44046 0.203429 0.68702 3.66399 5.73685 1.00638 2.9254 8.42059 4.33421 2.21041 1.00461 4.50269 6.60716 3.05371 5.63063 3.34851 0.714618 5.78043 1.42829 1.47669 1.12604 5.78043 2.06397 6.5912 5.46271 3.35601 3.1629 7.56296 4.51687 2.74039 2.43462 4.21929 1.74095 4.83029 0.890319 5.69417 1.2744 6.56145 5.33805 0.682807 2.80289 6.68603 2.69397 5.03135 2.94205 0.600251 0.0723512 1.30871 4.14688 4.29431 3.09225 2.9509 3.15313 1.18182 2.08256 6.39454 1.66599 0.971428 1.34862 0.158706 1.0664 2.49484 0.793612 2.19618 0.244112 4.74254 1.22292 4.03063 0.904113 3.05146 0.649748 7.19893 2.68304 4.29444 5.83048 2.98981 3.60895 5.7587 5.57748 3.05739 4.98017 4.79351 4.79035 3.74469 3.83105 2.17975 4.3108 5.91087 2.22233 0.915877 4.94112 1.18126 3.2004 0.581393 1.1575 7.38235 8.24589 3.80804 1.55969 2.82771 5.21088 1.39139 4.17185 3.94121 5.09314 1.76527 2.95718 0.577788 8.89461 0.461939 8.15033 1.11809 0.758073 8.60561 3.2903 7.38255 4.75173 1.95389 4.14688 4.43293 6.51223 0.971428 1.67929 5.40642 1.23642 6.0123 0.13504 8.54767 1.96537 2.36186 4.88529 3.86053 3.03583 0.353254 1.24387 8.73369 3.22626 1.11307 1.55969 10.8915 0.528255 3.20491 5.94382 3.30382 5.20302 0.449217 4.91587 3.99276 1.67836 0.995096 1.12724 6.12324 5.57296 4.17185 3.73559 2.89509 2.22694 2.5771 1.86831 2.40778 3.88123 2.43532 5.96128 2.64833 0.775201 2.14394 3.69399 0.90183 1.60985 5.91087 2.31401 1.50994 5.18845 1.08238 0.777105 3.51407 2.40151 1.34759 0.324727 1.32825 3.3633 9.14843 3.38184 4.38461 3.04581 5.50828 5.86148 5.41672 3.21878 5.22293 6.12324 2.0771 3.05135 2.25064 0.744095 1.00638 3.14575 4.4793 1.0716 10.1408 3.69339 6.10206 1.83576 0.906312 2.22537 1.75706 1.20045 0.651396 5.15883 5.50866 5.69417 3.5048 1.44373 6.94726 0.612344 5.97592 1.26361 4.85431 1.35326 0.59306 4.71598 5.38099 2.25547 6.99171 6.1683 4.40503 0.513104 8.0335 4.84843 2.35614 2.09165 5.73221 4.70938 3.16809 9.04748 3.03583 3.29749 3.05739 0.941334 1.15877 2.00959 0.577788 2.69576 5.04578 8.54767 4.21929 1.25825 1.48888 3.12544 0.852106 1.45664 5.70729 1.96164 7.39408 2.26623 8.21086 2.57428 6.46899 1.18126 1.00323 0.980521 1.86831 7.21837 1.37123 0.474527 3.38184 1.12987 0.680847 5.6341 7.80363 3.36199 7.56296 0.354222 6.92101 2.35563 0.941334 0.13504 2.70509 4.3292 3.51863 6.4733 0.528255 1.48515 3.77426 3.89764 7.12682 3.19608 2.49276 4.99248 0.0985691 10.4246 0.954853 2.68492 7.61476 0.467201 0.85625 5.61073 1.96574 1.67963 0.207473 0.425592 0.471352 9.04508 1.11209 1.87597 10.4437 1.24387 7.12682 0.432533 1.802 2.97799 3.42902 1.35667 2.72092 5.87295 2.44314 1.66576 1.83387 3.89632 5.36131 1.45664 3.69884 0.939198 2.63086 4.8268 5.45574 4.83835 4.33474 3.71287 1.00461 1.56763 4.4723 5.79668 0.626285 9.1543 1.71692 0.984637 5.96128 2.70687 1.69269 1.20874 3.5469 3.65869 1.05317 2.71413 2.46182 3.88123 3.03323 6.13385 1.71122 6.53518 1.66576 2.30084 0.884209 0.612344 3.31468 1.5549 7.76049 0.0696456 2.82771 1.11307 3.44286 0.836288 0.994662 5.19648 2.70064 0.298743 1.77638 1.73568 1.30709 2.88861 2.27525 8.0335 0.057247 8.75915 1.75706 1.08561 4.2374 9.10016 0.90183 2.86157 4.59089 5.8146 1.71692 1.38917 4.00323 7.41252 1.89121 1.63842 0.467201 3.99618 1.88622 2.31464 5.44688 2.49999 1.45175 3.99563 1.84772 5.51006 5.29491 3.71287 5.78469 2.31401 2.0526 4.50269 0.67717 8.0478 1.29307 8.78788 3.75412 0.78488 7.34269 1.72782 3.66399 8.07696 2.94819 1.97987 4.22297 3.12544 6.27053 2.97799 1.33313 0.602913 3.05371 1.12604 2.25837 5.53236 0.890319 9.94583 2.2359 7.42115 3.5048 3.2004 6.46899 2.67928 10.3577 4.05431 8.00548 0.66911 7.15134 0.994662 5.79841 3.65869 1.62406 1.1626 5.25182 5.92201 1.30628 2.13545 3.8392 1.2711 5.18845 3.41374 7.48536 0.486287 7.71505 0.852899 1.48515 10.8915 3.80804 5.57296 2.72376 0.855356 7.87033 4.0093 3.14878 8.40412 2.67928 7.21837 2.5771 0.984637 5.79841 1.485 1.27082 1.82831 4.95043 1.57005 3.09531 2.49276 1.04127 2.26623 1.02154 5.41284 3.502 3.04581 3.3351 3.18416 2.73187 7.80363 0.750647 0.714106 1.59657 4.2837 2.99923 0.823888 11.3003 0.567027 0.836797 11.0168 1.68205 2.65941 7.05235 5.97931 3.37109 0.631217 0.659296 0.278658 7.15257 0.790196 9.38758 3.78841 3.05135 6.49711 2.31424 0.535883 3.44947 3.61639 0.602913 6.91097 6.01291 5.63063 2.69576 2.95718 1.55182 1.88274 2.96548 5.63196 0.59306 3.79938 5.63658 1.05317 3.06213 7.27043 0.30697 5.80217 1.00559 4.7296 7.05805 1.96164 4.26332 5.76157 0.428369 0.0471083 4.75457 2.36615 1.58985 8.14675 0.905245 2.9218 1.02775 7.67174 2.68304 1.20874 7.70955 0.566988 0.892445 1.98796 1.55013 5.73975 1.55182 1.76527 1.24392 3.79938 1.35326 0.401998 0.444253 6.63478 0.476698 7.59995 2.61329 0.863146 5.97 3.33417 1.66887 1.63526 0.224377 0.675129 4.61513 4.55268 10.2374 4.41687 0.398413 0.858904 3.85417 4.23541 5.41284 5.43831 0.602289 4.43987 0.96088 5.16139 1.53542 1.24186 3.68899 4.87295 5.43831 2.28246 2.96491 0.92564 3.28139 3.79451 1.62532 1.69682 6.54913 0.410228 3.64834 5.3503 5.87087 1.15027 2.49669 0.726891 5.73221 5.78289 5.88581 0.799891 1.485 5.25182 2.39957 0.823329 1.54573 3.85417 1.67792 3.45015 5.40067 1.75421 2.36186 3.72062 1.34373 0.0696456 0.626202 8.42059 2.07463 3.68918 5.21088 1.96574 7.16311 2.09606 1.64201 3.09334 3.23001 2.13778 3.15313 6.0538 2.77181 4.20136 2.9255 1.81394 8.23967 1.18662 1.37 7.45155 2.07004 2.13545 3.52149 2.11581 0.631217 6.47429 5.06492 0.66911 0.160925 3.99563 3.59096 8.25438 0.158706 1.88648 1.16237 2.90279 2.93754 3.10057 0.359726 1.61706 13.067 1.73902 5.83781 1.81503 1.23403 4.2742 5.94072 3.97232 1.34938 7.34712 2.16828 1.11809 1.76984 8.6037 4.88529 1.75421 0.77516 4.36827 0.44609 7.21592 2.90279 9.42576 1.89067 1.11106 8.25023 1.85357 10.4246 0.887083 1.38917 9.1543 4.98146 0.929851 1.80546 2.47469 1.07019 1.17457 3.71426 0.682807 0.214987 7.45155 3.21544 2.05892 9.94583 5.70433 0.649748 5.6605 5.99859 0.322825 0.501674 0.626285 5.15016 1.07019 2.65191 8.21086 1.04127 3.19608 1.85357 2.06168 1.2016 3.885 4.79351 0.705786 11.6128 3.6638 6.0842 3.09334 6.18966 0.755613 0.0471083 6.08791 0.235086 2.47167 6.4334 3.73266 2.62398 7.84706 5.95031 1.47881 1.23642 6.50982 5.76992 0.859761 3.68899 2.8876 2.77181 0.838204 2.91091 0.311814 4.51687 0.34417 4.90856 1.22292 8.26661 1.67836 0.635203 3.03766 4.83806 1.96402 2.02372 0.411784 3.90825 5.97 1.76707 0.350485 6.31914 1.47138 0.392196 1.13217 4.46602 2.4433 3.34292 6.36841 2.30084 2.44314 3.83113 3.51407 7.19165 4.30128 3.90317 5.79637 0.623114 5.15883 0.490716 1.35337 8.66432 1.17618 1.88622 0.521273 8.78788 9.5409 0.832073 3.51863 1.0808 7.38255 0.401127 1.802 9.32454 0.673997 2.09265 2.34137 6.91097 1.33313 4.30128 8.93195 2.3067 0.946528 5.31938 1.23991 5.94072 2.24733 0.540631 4.24183 0.745745 1.55839 2.63437 3.34146 7.08201 0.425592 3.82762 4.6091 2.57428 2.65191 2.47469 4.60447 1.73081 4.26332 4.7296 5.24346 2.25615 2.28229 1.76707 0.863146 0.388175 5.99397 5.74014 2.63086 5.55475 1.70106 7.39583 1.08455 2.72092 1.48341 3.28139 1.08388 4.28188 6.94422 7.59995 1.69355 3.90317 5.31938 1.41877 7.52628 0.298743 12.2287 2.49484 11.3364 1.40995 9.90658 0.256867 0.953678 2.66493 6.04605 0.197562 1.1413 4.31838 0.993333 5.49935 0.915877 4.90391 2.65011 2.56623 2.47729 2.3067 2.59924 1.66903 0.993333 7.02602 2.36615 5.60238 0.836288 3.59008 1.82831 7.39408 0.431946 7.03932 2.3739 0.929851 1.97641 0.771748 7.82687 0.162908 5.51006 2.2783 2.32829 1.94769 5.05198 0.720754 4.38408 0.541712 1.56031 4.17518 5.80217 1.20045 8.75915 4.74613 0.194479 1.70106 0.588141 5.22924 5.40148 6.74579 2.17855 3.03766 4.38408 5.23884 1.94769 11.0976 4.50865 1.73902 1.23991 2.37059 3.45015 4.42146 0.588856 8.10675 0.974348 1.47912 7.18899 4.36827 1.88648 1.34862 6.51223 0.409764 0.872435 8.42377 3.14789 6.55971 6.97977 4.66515 3.20413 5.95031 2.36467 0.679905 0.838204 6.0538 2.9509 0.969837 3.65812 0.41497 4.59395 3.10057 7.95867 0.322961 2.90639 3.81104 2.22993 1.23569 7.39798 0.69961 3.77426 2.72376 2.22694 1.95396 3.16809 5.57748 0.859761 1.22515 4.85431 0.894889 5.7873 0.602289 4.87295 3.18751 2.01623 0.67717 3.3487 2.68492 5.58274 2.48285 7.81136 0.410228 1.81016 2.31424 3.64899 1.4226 4.08841 3.57798 0.835163 3.9766 1.46838 4.91587 3.81756 6.05131 1.37123 2.73187 4.99171 0.823888 7.46897 2.39154 2.79715 0.832162 2.98981 2.87424 1.53542 6.35153 3.8572 1.35815 1.89067 0.778489 3.2092 3.3487 3.75412 0.521273 3.99618 7.61476 3.67535 4.04463 1.47912 1.78251 0.905245 9.28955 0.891901 3.14878 0.174288 6.04605 7.36525 4.33474 0.936001 5.92201 1.50994 5.78469 1.46838 5.33842 1.02631 5.40148 0.635203 3.99276 3.66087 4.8268 5.74014 2.98395 0.94687 1.40985 0.797978 6.36841 3.11753 1.44373 1.22515 5.76992 3.09531 8.24391 2.137 4.99248 3.03555 3.83914 2.47747 1.08561 2.22537 7.89368 4.22297 6.01486 0.930202 3.21006 2.2727 3.69884 0.852106 4.12727 5.58274 0.954853 1.14653 0.955873 1.71211 2.26648 0.409764 6.0123 2.8876 2.96491 6.77522 2.02372 4.44654 2.06168 1.61825 8.87563 1.72809 2.94755 0.350485 2.28229 7.76146 6.45376 0.307498 8.90612 3.57798 0.890203 5.64471 2.1056 3.09816 5.97931 0.762246 1.26693 8.23967 1.02417 7.82687 4.00414 8.20185 0.212472 7.15755 2.74039 0.311814 5.9052 2.60196 
</DataArray>
<DataArray type="Float64" Name="wall variable 0" format="ascii">