<VTKFile type="UnstructuredGrid" version="0.1">
<UnstructuredGrid>
<Piece  NumberOfPoints="    3374" NumberOfCells="    2486">
<Points>
<DataArray type="Float64" NumberOfComponents="3" format="ascii">
-40.8705 -31.6641 0 
6.11913 6.79378 0 
33.5077 -3.94215 0 
0.925879 -41.9061 0 
-17.9221 32.3278 0 
-45.1413 17.3811 0 
4.89387 -29.2946 0 
14.476 -54.6883 0 
-35.2807 44.1218 0 
51.1842 -18.2699 0 
-42.4948 9.69131 0 
31.1244 -15.1229 0 
-9.17306 27.2424 0 
4.50943 -43.1914 0 
46.2971 17.0313 0 
-7.13722 -27.727 0 
-1.53356 -58.0858 0 
55.3675 5.50328 0 
-19.2182 -26.2425 0 
20.6036 -13.3807 0 
16.0969 40.0736 0 
29.3638 34.7636 0 
-34.069 -28.3678 0 
3.61263 0.978358 0 
-25.0066 49.0602 0 
37.0044 -6.62405 0 
-22.144 -40.3848 0 
-18.4837 -36.9909 0 
-37.983 10.1218 0 
-43.0709 -9.03554 0 
48.4403 37.4966 0 
30.1136 15.3445 0 
-26.9782 -43.6539 0 
-22.5112 42.7113 0 
-9.09566 59.7363 0 
-12.8283 58.4329 0 
-9.8297 23.9843 0 
-6.03003 34.2136 0 
23.6308 38.1348 0 
-6.10313 -45.0407 0 
36.5806 48.2767 0 
-15.2989 -54.4591 0 
26.0135 -42.7839 0 
-29.1787 45.4605 0 
11.7503 32.7045 0 
44.9182 -13.983 0 
-8.61674 -1.06801 0 
-18.4795 22.9015 0 
4.41745 15.1102 0 
-3.69669 -28.851 0 
28.596 -23.987 0 
16.9299 50.4067 0 
-16.6207 -6.48085 0 
28.1353 -53.5283 0 
-17.1335 -16.366 0 
-29.7628 4.39632 0 
-6.40839 -35.3966 0 
50.2446 27.8959 0 
-4.99778 55.1998 0 
11.6411 36.5235 0 
-18.055 22.9122 0 
37.5575 -26.0717 0 
33.5755 -33.449 0 
27.0667 -17.6926 0 
-41.2598 22.1754 0 
5.90853 38.9962 0 
17.2105 21.3044 0 
-44.8847 -19.1093 0 
-50.9795 -30.9335 0 
8.77193 57.7456 0 
10.112 -2.85372 0 
-37.0523 -27.2621 0 
29.5519 41.5449 0 
-21.4812 49.4588 0 
-12.4471 57.9246 0 
-32.2514 -13.3659 0 
16.0261 -18.2778 0 
-30.4022 31.4706 0 
17.5284 -31.6308 0 
0.601421 52.7401 0 
-49.3544 -4.85689 0 
21.863 -26.2575 0 
-7.3694 -7.65199 0 
33.2705 46.816 0 
37.3422 18.9876 0 
57.6392 -6.49983 0 
-47.6418 -10.9066 0 
-0.767527 39.7145 0 
26.6906 54.6153 0 
-27.8528 40.9967 0 
1.54119 -33.7786 0 
-19.8947 -19.7551 0 
17.1573 22.2628 0 
-47.3424 -24.58 0 
21.3948 -26.7804 0 
26.517 -48.2473 0 
20.5861 -1.66344 0 
-14.266 27.828 0 
-11.9693 51.4864 0 
8.47562 -24.8992 0 
-18.0117 -54.92 0 
-35.5599 15.3046 0 
34.6555 9.31526 0 
-45.0436 4.94701 0 
43.895 -13.0322 0 
-9.70908 -1.1967 0 
-43.8067 -3.38863 0 
21.1881 -1.97813 0 
-53.2922 22.4629 0 
-36.8638 6.05337 0 
54.3702 14.5579 0 
-12.233 8.97621 0 
-20.2799 -36.349 0 
18.029 27.6071 0 
32.8268 -13.2601 0 
53.182 3.06449 0 
-22.376 -19.9554 0 
29.9772 49.0572 0 
34.7489 -37.3142 0 
27.2715 -3.45665 0 
21.8851 56.9519 0 
-18.6425 56.4581 0 
-3.81309 58.586 0 
28.9548 49.5611 0 
-22.9015 55.4157 0 
-29.322 33.4882 0 
7.6952 -59.7918 0 
31.5036 -28.1513 0 
21.8797 40.1105 0 
58.6575 0.0623541 0 
6.02269 50.5678 0 
-15.4459 -1.87939 0 
-31.3204 -23.4384 0 
-9.22652 -12.3125 0 
47.5851 27.8166 0 
-52.6912 -18.9192 0 
23.5846 -3.93359 0 
9.22805 56.9 0 
-34.1279 -5.30131 0 
-20.671 -57.1544 0 
-55.9106 -23.6511 0 
15.258 51.7218 0 
54.9841 -23.7523 0 
-3.89194 10.9134 0 
35.7452 32.9955 0 
2.65932 22.8058 0 
-27.3563 -54.6852 0 
16.4332 54.9873 0 
30.0728 15.8548 0 
9.40372 29.6535 0 
-47.6097 16.7872 0 
0.815135 59.3679 0 
44.234 23.6245 0 
33.7271 -46.1407 0 
1.32373 51.9957 0 
46.4639 39.3035 0 
6.51596 14.4165 0 
13.9483 8.84338 0 
-40.6519 -7.86744 0 
-2.42962 -51.2332 0 
-58.2369 4.45601 0 
-9.98937 -10.4229 0 
34.6273 43.0682 0 
-32.6105 26.614 0 
-39.4978 -22.6679 0 
43.2497 -29.58 0 
-26.5388 -55.153 0 
-51.8868 -27.5801 0 
-30.4059 -34.5879 0 
-12.3145 -18.0933 0 
38.9984 15.1815 0 
-11.5385 38.6712 0 
-25.2657 10.6841 0 
36.9884 10.0013 0 
10.8999 52.9398 0 
-20.8026 28.4152 0 
-9.74505 18.3709 0 
-50.8294 -31.2876 0 
17.3097 21.0087 0 
9.9886 -5.57837 0 
39.66 28.8691 0 
-29.0357 -14.548 0 
-32.7076 15.7841 0 
-2.51016 -35.8257 0 
-30.9557 35.5612 0 
32.9509 -19.3888 0 
34.9219 -28.7772 0 
7.54173 20.8439 0 
-24.9496 34.5237 0 
-19.4299 -8.56894 0 
34.1867 0.548439 0 
49.6173 3.00694 0 
52.3702 -26.813 0 
-15.5461 -49.4522 0 
39.9201 27.5795 0 
-58.2588 -0.613325 0 
29.7142 25.4933 0 
-13.4788 8.1243 0 
38.5083 -13.7597 0 
-38.0997 31.2546 0 
32.2451 -17.8374 0 
-48.2522 29.2854 0 
-11.0357 8.18128 0 
-15.5233 32.5652 0 
-8.86835 -21.5735 0 
-17.8825 56.9767 0 
17.7217 44.9861 0 
44.2111 -41.0964 0 
-1.4881 -3.81909 0 
-25.9196 13.5131 0 
15.4371 -40.0871 0 
36.7554 9.93666 0 
33.0196 25.2592 0 
0.359557 33.8744 0 
-21.0701 49.5213 0 
-15.6798 -32.674 0 
41.6718 -24.3936 0 
50.1259 26.5804 0 
12.1132 44.5194 0 
53.2336 -10.5874 0 
-10.3068 13.6119 0 
-18.3738 2.52068 0 
26.2789 -33.7448 0 
-51.4118 -20.1451 0 
8.94621 18.287 0 
-57.0842 -10.1014 0 
-45.8247 -39.0758 0 
-2.65031 36.2828 0 
30.4131 -22.8548 0 
28.1525 -30.023 0 
-37.4121 -17.1091 0 
11.2138 -1.72503 0 
-45.8324 2.26766 0 
-25.1908 52.5968 0 
2.23364 59.5089 0 
14.1395 -27.2315 0 
-33.8844 -7.855 0 
-6.88623 4.24348 0 
-17.0952 7.85372 0 
13.2827 59.3721 0 
20.8767 -38.8208 0 
-6.0002 -44.6354 0 
-20.6448 35.9657 0 
-27.1296 -1.27508 0 
15.3845 -8.05588 0 
3.52001 58.5942 0 
1.75006 9.6179 0 
-3.16961 -15.0354 0 
-50.1866 31.1368 0 
49.9768 4.08392 0 
48.5895 -4.29408 0 
33.2209 27.6199 0 
-39.0907 -42.2663 0 
55.8445 11.6891 0 
4.84081 -13.9441 0 
26.4605 -26.5005 0 
-19.7438 -4.55322 0 
7.19951 -22.1603 0 
18.7787 -2.18741 0 
10.5829 -34.9218 0 
-45.6905 38.9908 0 
24.2667 -51.1079 0 
-18.5117 11.1085 0 
29.1654 -23.2402 0 
9.28008 -48.8 0 
-36.5638 -46.7245 0 
-51.6468 5.94437 0 
0.635772 29.9545 0 
35.6429 -35.3797 0 
36.0534 23.0484 0 
-47.8551 -17.7501 0 
23.3524 32.4445 0 
-16.327 -26.6978 0 
-43.6452 -30.3817 0 
7.81047 45.758 0 
14.3722 -47.3978 0 
-12.287 51.086 0 
-17.4117 13.9384 0 
-13.3824 -28.3747 0 
-58.9247 15.7876 0 
55.9514 -7.08617 0 
-24.4863 -0.221546 0 
-49.1677 -24.208 0 
25.8045 22.6768 0 
18.5552 -52.1416 0 
-39.161 20.7613 0 
-38.3601 10.1553 0 
17.5578 -43.6144 0 
51.1365 -19.0603 0 
27.6052 4.11023 0 
-20.8372 -8.21677 0 
-52.379 -2.44342 0 
-2.46128 11.5972 0 
-36.3083 -17.0904 0 
45.1068 14.3126 0 
28.846 -5.94655 0 
22.6313 49.0723 0 
-1.75171 17.867 0 
-40.03 -12.8241 0 
-3.4569 -19.5805 0 
44.4302 -1.93533 0 
59.0627 -14.2679 0 
36.8497 -8.78015 0 
-4.4212 30.4673 0 
2.77757 28.6559 0 
-46.7606 36.7752 0 
-27.9568 41.4691 0 
-41.3245 31.9638 0 
23.1283 14.9992 0 
14.4538 16.978 0 
-55.6001 12.5667 0 
54.4698 20.568 0 
-46.6627 -40.9115 0 
-28.0879 -23.9722 0 
-49.2884 8.75662 0 
49.4161 -8.17121 0 
6.43483 -51.8503 0 
-13.9936 42.3898 0 
-53.0953 -12.7905 0 
39.8364 -36.2934 0 
-39.3467 -41.9333 0 
-10.3908 52.597 0 
-45.7644 27.5632 0 
-56.736 16.8171 0 
44.7371 42.3895 0 
-45.5539 -27.9609 0 
12.2806 -61.0141 0 
-37.631 -38.3986 0 
49.5271 -25.3968 0 
-16.2054 -0.672024 0 
10.9349 -6.83067 0 
-47.5001 -34.6654 0 
-24.9066 -19.8001 0 
40.0711 5.49268 0 
49.3347 18.5789 0 
-17.0358 57.6951 0 
43.5044 -38.0052 0 
-29.4971 18.2832 0 
-26.5682 -3.5695 0 
22.7286 -35.6151 0 
-27.7709 16.7276 0 
-39.1137 38.3872 0 
13.9046 -25.0508 0 
46.1543 16.7721 0 
-31.7981 -31.1178 0 
-11.4542 35.1648 0 
-1.52821 11.3306 0 
-34.5185 -4.2337 0 
-6.76911 3.5079 0 
-12.2288 -31.2126 0 
-18.8217 22.4298 0 
-8.48131 -21.7225 0 
52.3138 -29.2379 0 
-31.9996 -39.6169 0 
-38.6411 30.725 0 
-12.9125 21.745 0 
-26.1032 14.4443 0 
45.0737 31.789 0 
-51.9444 22.4885 0 
-23.4358 27.797 0 
15.8271 -54.3947 0 
-37.1884 41.4186 0 
-27.4397 23.9396 0 
-35.4145 34.317 0 
-23.416 -27.4545 0 
-29.8761 -30.0711 0 
-58.785 -13.025 0 
27.9845 17.3908 0 
31.4344 11.179 0 
-0.174782 -0.466168 0 
55.7974 -22.6894 0 
-12.0829 -29.7578 0 
-38.0725 -0.429671 0 
12.6898 33.3305 0 
2.12967 -11.8121 0 
-18.0052 -58.9468 0 
19.6499 -22.4264 0 
0.161869 -21.5079 0 
-7.52759 6.59468 0 
-24.9026 -45.2509 0 
-36.4974 4.97458 0 
-16.1763 15.2148 0 
59.4759 -9.24486 0 
40.583 -46.0605 0 
-40.9624 22.0004 0 
-5.7901 -56.8397 0 
38.0354 38.9661 0 
-26.2106 -49.6648 0 
-5.62463 20.1421 0 
24.6181 44.2173 0 
18.8197 -58.9442 0 
-4.16144 2.65804 0 
11.6259 -39.9247 0 
44.9909 -27.9627 0 
43.6207 -28.8253 0 
-22.9124 1.02226 0 
-29.2705 -14.9344 0 
43.6859 36.1594 0 
-50.3801 -9.00259 0 
-3.0172 45.025 0 
22.3066 -15.7937 0 
-51.7763 29.6098 0 
27.4609 -12.4259 0 
-13.7944 -44.7685 0 
-33.1868 27.7508 0 
-29.2165 -0.0525757 0 
-10.2405 -41.5635 0 
-13.9479 8.06421 0 
19.4784 49.9553 0 
6.7333 13.4274 0 
4.3215 38.5881 0 
-48.961 22.0265 0 
17.071 11.1028 0 
-39.3928 -1.11966 0 
-21.1764 -30.6217 0 
36.8767 -33.428 0 
-22.3025 -52.3526 0 
-60.6236 8.68012 0 
-26.2171 -4.44089 0 
21.8793 -19.3038 0 
19.309 30.774 0 
39.6492 29.0162 0 
-24.3957 -20.3271 0 
37.4138 -16.011 0 
24.7368 10.667 0 
23.962 37.4817 0 
-41.146 36.6439 0 
15.1323 40.3151 0 
-21.7198 18.0741 0 
4.61159 9.40263 0 
10.6954 -17.2513 0 
30.3164 -41.3858 0 
-25.8379 8.76168 0 
32.8194 31.9926 0 
-12.2183 -0.963522 0 
34.1778 -51.2164 0 
-25.164 -23.8096 0 
40.3442 -37.4174 0 
-12.5773 19.1249 0 
-10.7678 46.1181 0 
-17.6748 41.0346 0 
45.0932 -17.685 0 
15.8016 -31.558 0 
25.7631 4.28869 0 
-6.43592 -47.733 0 
1.41526 -60.796 0 
-58.3624 -17.4024 0 
-30.9121 -30.8175 0 
-45.918 -12.2076 0 
1.7436 -52.3082 0 
-6.57888 -48.3115 0 
27.9817 -4.23586 0 
59.3059 -12.6738 0 
-58.7973 -12.4529 0 
-7.44644 -27.5591 0 
10.2129 -55.4281 0 
-22.2612 -32.0738 0 
-49.0192 14.4406 0 
-5.19086 53.5301 0 
11.6337 5.60888 0 
-27.9151 23.5361 0 
-31.5768 -31.949 0 
21.1514 24.9461 0 
29.7567 42.2636 0 
5.58627 47.3451 0 
6.9902 -14.1584 0 
-21.3317 27.8177 0 
36.1484 -49.0086 0 
10.0044 -35.3163 0 
21.8177 -41.597 0 
-30.3038 -34.5106 0 
3.95247 -30.3729 0 
-23.0928 -34.6445 0 
-19.1356 51.0551 0 
-7.51466 -34.5379 0 
44.1999 -9.71273 0 
0.396559 -12.6842 0 
22.4415 -15.3618 0 
-1.99433 40.9181 0 
11.1156 -61.044 0 
7.67036 20.6975 0 
-19.7076 -45.9159 0 
7.98625 -12.1083 0 
-6.15897 -3.89887 0 
17.3907 57.4833 0 
-4.7897 -3.83526 0 
-55.5446 7.85462 0 
16.7433 -5.2934 0 
2.85924 -8.0501 0 
-46.4057 -41.5502 0 
12.7641 0.821052 0 
-57.2792 -2.46345 0 
-2.74657 19.3904 0 
20.303 10.0997 0 
[...]
<CellData Scalars="wall variable 0">
<DataArray type="Float64" Name="wall length" format="ascii">
2.89063 6.35682 4.13394 1.18749 3.15043 0.936459 3.8228 0.581259 5.21584 2.66234 7.58945 4.01651 4.60111 1.27658 4.34264 3.64558 1.16101 7.39861 2.4296 1.82681 4.4471 1.7496 1.56116 4.26857 3.83831 0.99617 0.97014 0.490774 7.97831 3.83831 3.76497 2.85307 6.62992 0.557667 3.65614 3.42908 3.37864 1.66972 0.388335 8.20169 5.37452 1.23751 4.82346 5.61942 3.59911 4.45045 4.44599 1.99717 7.23226 1.86337 0.885699 5.02375 0.5131 4.61328 0.628776 6.61276 1.35749 2.61824 3.8152 0.852762 1.98917 0.769451 7.4264 4.22068 0.852762 3.10515 2.55152 5.6674 1.0215 5.17587 2.39495 5.1192 2.24284 3.68686 2.67367 2.74112 1.13604 3.31804 2.88299 5.49528 3.56614 5.6402 1.78774 2.89732 0.423354 3.69456 6.92868 4.20976 0.936892 4.77678 4.76724 3.08329 2.79235 2.40925 1.39603 1.51422 5.30942 4.21344 2.80151 2.80685 1.54378 3.67597 1.0735 5.56142 0.311911 2.59327 4.13872 1.28992 2.71357 7.39861 3.23153 4.78389 4.08837 2.1896 1.72842 6.72836 1.36477 2.02873 2.399 7.22844 0.651572 10.0458 0.718279 5.38438 2.4296 2.71357 1.35731 7.04249 2.04346 5.97843 3.78945 2.38485 4.19817 1.31308 2.55589 8.34475 1.96733 1.99775 8.96571 2.89829 1.58553 5.1479 0.571706 2.3599 1.17113 0.907048 7.50049 0.476444 4.56655 3.89341 4.23828 8.76593 1.54528 4.72501 0.758274 2.32133 1.81325 6.44482 3.76341 0.647213 3.2534 1.56471 2.20571 4.76704 5.64934 6.57307 2.76411 3.82391 1.28711 0.503751 6.89114 0.581259 3.34564 0.372494 1.18749 4.07696 2.38682 7.12854 1.91856 3.6303 1.91865 0.158946 4.29584 5.25067 1.28525 9.34003 1.41463 1.89701 6.6025 2.37498 0.754954 2.33873 2.31835 1.45805 0.824987 0.929638 6.91753 2.02873 0.234645 4.49545 1.85603 1.71521 0.196976 1.43999 6.90395 0.374106 0.455907 3.62574 5.35179 3.20072 2.16993 7.51078 3.13887 4.47914 0.46798 7.9439 0.477496 5.16442 1.9532 2.12328 1.80744 0.707488 3.75268 6.97995 0.47195 5.67162 0.15764 0.748223 2.53838 4.77678 6.33532 1.73968 5.26237 1.17765 7.16669 3.26409 4.63183 4.62839 1.09533 4.51759 3.32018 6.14469 3.78945 2.79294 7.34753 0.331265 0.445551 3.90557 4.44599 0.866929 1.58409 4.24234 4.04616 2.05273 0.866929 4.45045 0.644226 10.3292 1.38888 3.06348 0.340478 5.95939 1.82081 0.991545 5.08837 0.566203 4.1736 3.07177 0.49329 7.14207 0.623822 2.48295 4.98166 2.52377 2.54817 7.99205 0.689762 3.7946 3.10743 2.65215 7.09713 0.783512 4.78389 0.671326 5.21238 0.158946 8.78787 0.176649 7.69999 1.63238 4.18284 0.860524 2.82231 2.06911 3.40096 8.54576 2.04941 3.34115 3.25676 0.927211 3.23245 8.43147 8.34934 1.24629 0.893796 7.4264 1.95007 1.91865 2.19366 3.41135 0.107487 4.95694 1.20732 4.79206 1.04169 8.25477 0.969233 4.86781 2.79235 2.65874 1.80349 5.59256 2.2034 1.55351 2.04045 0.564936 5.0653 3.64004 1.89024 4.23828 0.407737 5.96596 0.400878 3.82391 2.09212 4.08697 2.0185 2.53183 2.72995 4.74267 1.45805 8.03737 0.299055 6.09469 1.76936 1.42402 2.24139 7.69999 4.82346 2.1447 0.524969 4.56851 6.59747 0.828566 2.46372 6.22075 3.06618 2.95353 3.04496 0.415671 6.02694 3.0247 2.64016 0.569045 1.50993 3.06618 2.54771 1.72842 2.21848 0.725129 1.72018 3.98065 0.920673 7.99289 5.08837 3.12478 3.14014 5.14719 1.97668 9.09067 2.37498 0.80074 1.27915 4.71835 2.09528 4.88177 3.79165 2.71224 1.95603 3.65808 0.391809 1.17594 3.21877 4.13762 0.837339 1.67495 6.62477 1.00191 6.3507 2.74112 3.03732 2.59275 0.913451 3.05036 8.92872 1.7473 4.50329 4.27344 0.807354 0.38856 3.49489 5.95939 3.02745 8.72018 0.593932 7.3467 8.24648 1.00412 3.24538 1.23287 6.91263 1.32307 1.72018 3.74647 3.54313 0.924314 2.20571 5.16233 5.02372 1.00306 2.89044 2.64016 3.13714 4.91213 7.51985 3.70327 3.10483 3.11816 2.94624 0.332516 0.543693 1.4213 4.74895 3.51176 2.2034 2.02217 3.00427 0.334629 3.25479 3.22426 2.11128 6.43606 0.667773 4.53851 3.31166 0.952869 6.2512 1.22749 2.15534 2.42973 6.01063 0.334629 8.85762 0.5419 2.3969 0.791848 7.125 1.97438 0.473141 8.17808 0.737117 3.62367 1.63238 2.24139 3.55373 1.39851 2.85307 1.70908 4.34797 0.53397 3.63743 9.1555 0.597928 0.748223 7.88368 0.445551 6.18858 3.02676 3.12599 7.49024 3.19994 3.34115 1.65156 6.57117 1.95603 0.799731 2.22407 5.12338 1.05487 6.2372 0.99617 6.62992 0.597928 2.20243 1.94363 2.43368 2.10225 4.95457 2.2392 2.43238 3.88042 5.54306 0.117521 1.05487 1.87607 2.24284 0.62256 3.23245 3.30371 7.32738 0.390676 8.09351 0.423354 4.69981 2.87678 4.94742 4.56851 8.49117 0.710829 5.3889 1.65064 1.71785 2.33873 7.85907 0.913451 9.03524 0.171413 7.29676 0.770931 3.69573 2.19864 4.21344 2.55389 6.6015 1.148 2.1851 5.67162 5.0272 4.06544 1.80664 6.39355 2.98642 2.27189 3.8174 3.88042 2.38264 1.09385 10.0906 3.84576 3.06081 1.4044 2.06911 7.04368 6.2512 1.13565 8.18087 1.57003 3.21087 0.423011 3.25479 1.97438 3.67027 3.89618 0.473141 2.75758 2.94168 0.360551 2.89063 6.71003 4.61773 3.60262 4.68445 1.03428 1.99954 0.483005 2.20643 7.34753 1.00082 6.30445 1.029 2.50223 0.476444 3.93293 3.08942 2.00721 1.68814 6.04239 2.68643 4.01651 3.34638 2.65874 3.08329 2.19864 2.49081 3.69913 2.69044 0.371192 2.37139 3.01269 1.66972 2.04255 1.11312 8.00379 1.55152 2.12722 0.754575 1.10864 0.479113 3.63743 7.4889 0.469254 8.42858 3.06348 2.49913 4.36122 2.37139 3.73985 4.16289 0.853202 7.28348 0.425556 6.4497 0.991062 3.44326 3.7946 3.75845 1.21686 5.6674 0.660163 4.82934 4.97122 0.357855 8.49804 3.55373 1.42402 8.10723 0.249871 8.78787 1.41463 0.84696 2.88756 1.71273 4.19817 1.30217 2.1447 1.23751 1.54601 2.27135 2.54771 6.22075 3.4951 1.67495 0.955375 2.38682 1.95007 0.769451 6.22282 2.25455 3.07521 2.72923 5.41834 4.68154 2.2024 1.70435 4.20497 4.58689 0.410653 2.16714 6.77897 0.761698 5.85581 0.770931 1.46146 2.47794 2.92088 2.64092 0.39075 1.21919 0.53342 2.22293 3.26409 2.05682 2.16559 8.27089 3.23806 6.80368 1.74507 4.2395 2.58918 2.75258 4.16072 3.38286 3.46807 4.24234 2.11543 6.98915 1.10089 3.85739 1.92831 3.97016 3.57939 3.27731 6.71719 1.55351 3.89341 1.3979 7.74201 2.22693 6.39355 2.82631 2.28136 3.47052 0.929638 3.07349 1.28313 6.21924 0.664115 10.4777 0.481587 2.43704 3.11563 6.41853 3.58365 6.35043 2.12328 7.94967 1.14944 5.69721 1.84024 2.89606 3.27737 6.0784 2.5813 9.66053 8.56851 2.72672 1.74006 3.97939 5.02375 4.14094 5.93912 2.04794 4.33962 4.53851 0.555488 1.62573 8.54576 1.4044 7.504 5.1479 3.88829 0.299055 0.176649 3.01971 3.52702 0.761698 1.17716 3.22712 4.71835 3.41964 0.474059 8.53972 2.75758 1.39851 8.49804 6.0784 0.817179 5.16442 1.21378 4.21626 0.817449 0.693457 2.28206 1.85728 4.16072 2.37708 8.18087 2.96732 0.991062 2.61832 2.81501 1.22735 6.80436 0.972549 2.11543 3.05309 1.42013 3.22426 0.423011 8.53972 1.93335 0.983469 6.94462 4.27468 2.58381 1.44228 0.325579 0.588556 2.11128 2.84217 5.37297 6.91263 1.29777 7.21779 1.84024 3.6028 4.58689 0.505005 1.69351 10.3368 0.328576 2.28136 2.38966 4.68703 1.5961 1.14944 4.0103 3.08057 2.50175 0.812171 7.98639 1.44158 6.22241 6.04076 0.165951 0.812333 2.52377 3.63097 0.693457 2.82016 2.58918 4.09676 8.20655 0.736538 8.88421 1.17716 1.21919 8.14037 1.44313 0.577421 6.92291 1.44158 2.4371 1.74507 3.33736 4.20976 1.55086 4.30257 4.9864 0.325579 7.73758 0.503751 9.36508 1.20732 1.55197 5.87863 3.14014 0.886491 3.69268 3.44149 4.27256 7.9439 3.45575 0.553119 3.03046 3.5014 1.42267 4.04912 0.355134 1.27658 1.46993 4.25458 0.49329 3.58666 3.96716 1.10519 2.17766 4.00054 2.54136 0.608509 3.30371 1.24629 4.01453 1.07475 0.767357 2.69498 0.936459 2.5045 3.26548 4.75759 0.196976 7.09722 2.19366 3.6303 1.64687 1.52122 3.07349 3.81779 6.07424 0.781832 2.04794 3.40096 4.85368 0.58777 7.96514 0.53342 0.583924 6.77489 0.405877 3.5764 2.31498 3.19832 3.31804 3.06281 0.89442 0.736538 6.94712 0.477052 7.21603 2.96858 1.5052 0.651572 4.98533 0.589679 0.28282 9.26107 4.91 2.32631 2.63151 0.589679 0.381943 7.37619 2.61824 0.702653 4.76724 2.53838 0.284625 2.63864 1.78774 1.01977 4.34264 0.355134 3.32707 2.68678 3.52376 6.62477 3.4951 2.5685 0.95355 6.6315 3.02676 2.49675 0.27903 6.91557 3.47052 0.328576 2.9547 0.744474 2.399 6.91753 2.0166 5.61942 0.828566 0.666298 3.03674 2.82631 1.80664 2.85913 5.80387 5.07985 2.06327 2.70579 1.75589 4.98389 2.51886 3.76501 1.22749 3.21087 0.605386 9.00075 0.555488 0.667773 6.06677 1.48108 2.09528 2.59611 0.754575 7.31372 0.495798 1.0735 2.39648 1.6216 6.22293 2.49983 3.19507 3.68771 0.415671 2.27135 8.51113 0.314758 3.55754 10.0458 1.5052 2.19261 1.97321 2.65215 1.59299 0.238246 1.69351 2.12102 4.14094 0.885699 0.548489 9.26107 1.55152 0.425157 6.43914 0.594954 5.47322 0.652787 5.3876 1.48865 6.63352 0.405877 1.23149 0.861456 4.51759 2.98543 0.956273 2.62515 0.177725 1.55197 4.95694 1.90684 6.97995 2.38966 6.21924 0.772974 6.40796 2.48009 0.332791 0.481587 4.33424 1.54528 3.91601 1.46146 7.29676 4.18284 3.62367 2.73085 4.24942 0.403988 2.39495 2.43328 3.13887 3.07932 0.332516 9.69211 0.89442 4.04655 0.591875 1.97668 3.22712 8.88421 1.36925 0.553119 4.39929 6.14059 9.47039 3.05309 3.97016 3.76185 1.39603 6.00591 2.28069 4.66856 7.18431 2.17444 3.93516 2.36992 4.04655 3.06281 1.13604 6.3507 1.52122 9.69711 0.758274 0.57271 7.40742 0.772974 1.28313 1.11312 7.32413 1.33807 3.31166 4.33962 0.781832 0.743056 1.7996 3.57939 4.56655 2.50223 5.72751 0.861456 7.77437 0.799731 2.71224 0.514632 3.56835 1.41443 3.32018 6.68387 6.70832 2.45582 3.2534 2.84191 5.91912 3.08057 1.57252 3.77438 5.49479 5.50564 2.7979 1.00306 8.25797 1.54378 2.68808 5.91756 1.62131 1.56116 0.86385 3.13714 3.0247 3.11128 3.06752 1.19025 1.55086 2.25491 0.701425 4.98389 1.19016 3.42871 4.75759 2.36192 8.63143 3.42865 3.79382 0.853202 3.9634 7.01451 0.591875 2.36992 1.00191 7.85907 0.754954 9.09067 4.39806 3.11816 3.41954 1.83024 4.31409 0.187715 1.13034 1.18345 7.04368 2.82231 5.81533 1.30605 1.45207 10.0906 4.76548 0.723927 3.48124 2.19558 1.7996 1.99438 6.43319 3.97324 0.351012 2.98062 3.27731 2.43238 7.29501 6.26424 0.736628 2.38264 3.94312 6.51854 3.07737 4.47932 2.85701 1.10864 6.22293 3.34386 6.70832 2.88756 3.879 0.824987 4.74267 5.90999 2.68678 3.65486 3.96716 1.93843 6.45301 1.07479 4.09702 3.97119 3.31895 0.784034 5.01974 1.78994 4.82026 0.485139 3.02745 0.340478 8.42858 3.06081 1.27999 3.36616 3.33748 0.571706 7.504 1.48865 7.34988 1.55599 2.17016 1.24432 4.12623 0.569045 7.51985 0.806245 0.687601 1.55599 2.19121 5.69215 2.56707 3.42908 0.439292 3.94312 0.820007 5.16226 1.23287 3.94811 6.06677 6.43606 0.588556 3.59307 9.69211 2.94624 4.39806 0.107487 7.66692 1.93335 4.9864 0.283862 2.55389 0.47195 1.90684 1.2633 6.77897 5.99105 3.86443 0.28282 4.98533 7.22844 0.744474 9.58245 1.59299 1.44743 2.92088 4.00645 1.81325 1.56726 1.82832 6.31597 3.55237 1.7473 2.70475 1.70435 6.58275 1.79742 0.57271 4.72501 4.33424 10.4777 3.73475 5.16226 2.04094 2.84217 0.952869 1.33807 3.01269 7.28348 3.79382 3.32356 0.388335 0.670163 2.36192 3.26548 3.46926 3.50215 3.5014 4.01498 1.37329 8.63143 0.670163 3.09378 0.593932 6.57312 1.56471 2.45582 3.34386 1.6216 4.48012 5.16233 0.360551 2.23854 3.34478 3.19507 2.39526 6.35682 3.65808 6.2372 0.117521 0.847161 3.7457 2.59611 2.28069 2.49008 1.4391 1.19016 1.37329 0.933052 1.38471 5.19007 4.34252 5.01974 4.32766 0.788616 3.07521 3.21877 8.6899 2.64092 1.44743 3.09015 3.11128 1.75589 1.57003 2.37708 2.75258 1.58409 3.59911 1.03959 0.955375 0.837339 5.43879 1.82832 2.956 7.12854 5.30942 6.26063 0.63065 2.38853 2.43704 0.332791 0.171413 1.06334 6.75898 3.41964 1.27915 5.39667 0.207649 1.28525 0.847161 5.54306 3.8174 1.99927 6.87523 1.44753 5.6642 3.57949 0.543994 9.96235 0.422696 7.50049 0.734615 4.74895 5.7907 0.566203 5.14719 5.87863 0.177725 3.49826 1.90383 1.4213 9.42324 0.35378 4.48292 5.7907 0.372494 8.57387 0.767357 0.773547 6.71003 3.15043 3.10743 3.44326 2.96732 1.70628 1.98505 0.234645 1.36477 3.55754 1.17765 3.19627 1.94363 2.98399 3.76341 3.78984 4.09959 0.725129 9.69249 0.514632 3.79165 4.65613 3.74647 2.31498 0.294964 7.11965 0.374106 3.36124 4.27468 1.43865 1.44753 0.160836 4.04616 3.46807 5.24296 1.02626 4.27344 2.69244 3.05036 1.02626 1.09023 3.04936 4.36122 7.50179 0.575517 2.30955 7.81179 0.671326 3.23153 1.26299 0.5419 4.85572 2.55152 3.43552 0.381943 5.42939 0.603815 1.16482 6.02103 0.660163 3.95816 3.85739 2.73759 1.0215 5.4728 0.628776 1.69642 0.63065 4.04043 6.8195 0.314758 0.323495 5.0272 1.50837 1.04169 4.77347 3.77438 3.88814 1.21378 0.477496 4.27256 2.21271 1.50993 5.69215 3.1427 5.07985 2.91572 2.95353 2.49675 6.18858 0.331265 2.20643 10.8479 2.43368 3.19627 4.62839 0.20388 8.24709 1.1051 3.82174 4.04109 2.01799 0.652787 5.79822 2.25491 7.73758 1.44228 4.26858 1.43999 1.82244 0.543693 3.07932 7.51078 1.53436 9.42324 2.30955 1.94259 2.02217 5.59256 6.93564 0.855829 3.20929 6.09469 3.88829 1.58553 0.422696 4.48292 1.22735 2.88599 2.89606 7.21779 3.45976 1.50835 2.3423 0.240167 2.16559 5.1281 1.79288 0.807397 6.22241 1.42267 3.50215 3.24757 3.0265 1.46993 7.95281 3.75268 3.12599 6.6315 0.771384 3.49826 2.62515 0.105752 9.60231 1.09023 5.24296 3.38286 1.85728 1.07479 7.13371 1.37853 4.69981 2.89732 2.63864 2.04255 3.37864 2.56707 3.73475 7.32413 2.17016 0.687601 4.39616 0.490774 3.18689 5.79992 0.439292 3.65614 6.15773 2.14861 6.51854 2.7888 3.98065 1.32307 5.37297 2.04094 0.820007 4.47932 4.12623 3.38963 3.5764 6.63352 1.51422 3.76185 1.92831 3.95816 6.26063 7.125 7.79414 0.640014 3.67027 0.996505 6.57117 2.63944 1.64095 6.56162 0.238246 9.58245 2.9547 10.3368 1.03959 7.23226 4.55495 1.148 4.74121 3.06752 5.38424 6.26424 1.47732 1.50835 3.63097 4.98166 2.51886 0.701425 1.82244 5.35179 2.02889 6.71528 2.5685 6.22282 1.98917 4.22068 1.21686 2.01251 1.72951 7.32738 0.608509 1.83457 4.91 0.548489 1.86337 4.76548 1.09385 0.736628 5.38424 2.48295 11.3582 3.76501 6.71528 0.544888 1.16482 2.91433 2.15534 2.96502 6.15428 1.82627 4.95457 5.12338 0.283862 4.30257 1.19025 4.74121 6.6015 3.33406 8.00379 0.743056 6.07424 0.523427 0.106396 1.28711 0.459634 4.04043 4.79206 9.36508 1.85603 6.95669 0.777248 0.505005 4.20497 1.2633 2.76138 2.89829 6.51934 1.36835 0.682437 6.14059 1.03873 1.56532 0.409325 7.50179 2.49913 1.38888 1.66457 3.87126 1.44868 3.97119 1.13565 6.01063 2.74763 1.60876 3.23806 2.82016 0.817449 0.45424 5.99105 2.16714 3.15919 0.577421 6.92868 0.702653 1.35749 0.893796 5.26237 6.17389 5.42939 0.284625 8.25797 5.02372 4.48012 2.39648 3.67597 0.956273 1.85496 2.06327 3.1427 2.19121 7.34988 4.01453 8.34934 1.26684 0.187715 3.80015 2.72672 2.96721 3.78984 4.76704 0.924314 2.72486 1.79288 1.52505 3.43552 3.10515 3.8152 7.37619 5.60058 4.82026 3.76314 8.19554 2.28206 8.20655 1.0019 0.720106 8.19554 0.951591 0.105752 2.5813 4.21626 3.88814 1.57252 4.0103 2.10225 8.24709 1.83544 2.48736 3.18689 0.97014 3.93293 8.76593 1.89024 3.43337 5.20087 1.49446 2.04045 6.71719 2.98062 8.85282 3.78887 6.6936 0.564936 1.49446 2.67308 1.99954 2.63151 5.61963 0.724498 1.35731 1.28992 4.29101 0.477052 0.951591 3.76314 1.78994 0.469254 3.04936 9.60231 2.05273 2.69244 4.50329 3.55237 0.858437 4.68445 2.79294 3.4301 6.42609 0.933052 6.57312 3.24538 6.40796 7.40742 1.79742 0.664115 1.29641 3.35049 3.34564 3.8228 2.69498 8.57387 3.60262 5.07737 2.49008 3.93516 1.81246 0.388405 7.14207 4.25458 3.0265 3.09057 2.66234 4.66856 5.19007 2.01534 4.34797 0.794172 4.98744 2.63944 1.65156 2.04941 1.62573 9.00075 2.20243 9.1555 0.479113 2.85701 6.68387 0.647213 2.98399 3.71156 0.95355 2.01251 4.97122 1.90749 0.455907 7.11965 1.70628 6.80436 3.45976 1.29777 0.777248 3.66896 0.448352 2.18431 1.93843 3.58666 3.07177 2.47067 6.43319 0.316114 3.87261 0.807354 4.27029 2.50175 5.91912 8.24648 2.0569 9.47039 0.682437 3.25961 4.61328 4.50869 3.11563 2.38853 1.69642 1.42013 6.00591 2.40925 4.86781 3.51176 0.666298 6.59747 1.65064 3.42874 3.03732 2.67367 2.35801 5.98943 5.39667 0.80074 6.6025 2.73759 1.10089 3.92526 4.47914 2.43328 5.17587 0.794172 1.70908 3.76497 4.26857 1.62131 1.52261 7.18431 4.82934 6.02103 0.544888 2.02889 3.62574 1.90749 6.72836 7.99289 0.888388 2.3969 1.26299 0.655788 2.19261 2.96858 1.5696 2.59327 1.16101 2.61811 6.57307 4.09959 1.52505 5.1281 2.05682 7.16669 4.61773 0.773547 1.07475 3.42871 1.4391 5.07737 0.5131 3.97939 0.571864 1.29641 6.41853 4.50869 2.4371 7.98639 1.61781 1.0019 4.09676 4.2395 1.23149 6.77489 0.439551 2.96502 2.22407 7.77437 4.27029 8.72018 0.485139 5.60058 0.720106 1.61781 0.812171 0.886491 3.12478 0.991545 0.388405 5.21584 6.89114 1.72951 6.61276 5.4728 3.68686 1.87607 0.575517 0.409325 4.09702 4.34252 2.25455 2.70475 8.92872 0.15764 2.1851 4.55495 1.99717 3.90557 7.88368 0.693774 5.09767 2.73745 1.31308 1.56532 2.62012 6.04239 3.89618 0.640014 0.672546 6.15773 0.557667 0.909064 8.17808 0.502559 3.4301 1.00412 3.25961 1.36835 3.87885 6.43914 3.09015 6.31597 5.43879 4.13762 1.79595 6.93564 1.80349 2.69044 1.24966 1.06334 5.25067 1.48108 3.94811 3.54313 4.65613 4.88177 3.23969 5.79822 5.47322 0.744656 1.99775 0.86385 7.97831 4.39616 0.806245 4.91213 0.807397 2.72486 2.89044 2.7979 4.04223 6.04076 1.07395 0.322484 0.855788 0.718279 4.16134 2.17766 2.96721 8.56851 0.571864 5.93912 2.12102 4.68703 2.48009 3.35049 3.15919 0.410653 3.6028 5.69721 1.5961 6.92291 3.09378 4.01498 3.03046 1.36925 2.0569 7.3467 0.322858 2.53183 0.765003 4.0514 3.04496 2.91572 5.80387 2.5045 7.58945 3.09057 3.24757 3.46926 2.2392 1.82627 3.89583 2.3423 1.47732 7.29501 0.323495 8.51113 1.54601 5.37452 2.0166 4.06544 3.68771 3.34478 3.10835 2.68808 6.02694 0.294964 6.94712 1.44313 2.84291 0.391809 3.52376 3.71156 4.82426 8.25477 1.50837 2.98642 2.22693 0.836327 0.459634 4.07696 4.13394 2.39526 2.49983 6.8195 2.38485 6.14469 1.41443 4.18035 4.08837 0.783512 0.249871 8.96571 0.744656 0.594954 3.87885 6.51934 1.17594 2.84291 8.14037 0.39075 8.6899 0.909064 8.20169 3.32356 3.42865 1.16878 2.73085 0.737117 4.04912 7.95281 1.10519 3.65486 3.32707 0.771384 6.91557 0.311799 3.97324 2.47067 4.1736 1.90383 0.855829 1.79595 4.29584 5.21238 7.81179 0.972549 0.474059 0.357855 3.14252 3.20072 3.92526 6.98915 3.6835 1.6971 3.58365 0.782367 2.61832 6.4497 2.37888 8.12866 0.165951 4.04223 5.50564 1.43479 1.24966 3.69913 4.1508 3.01971 6.75898 0.27903 10.8479 0.483005 2.67308 8.85282 0.351012 0.311799 3.10835 2.23854 2.94168 1.81246 2.17444 1.52261 5.91756 0.153797 3.57949 3.86536 3.38896 0.836327 7.74201 3.7457 6.87523 1.63619 1.64095 4.98744 0.605386 3.14252 8.10723 1.76936 3.20929 0.35378 1.53436 2.16993 2.12722 5.3876 2.01799 3.0126 7.31372 1.71521 2.76138 3.86443 0.45424 3.41135 7.09722 0.524969 1.30217 2.46372 4.0514 4.04451 8.49117 1.16878 7.01451 0.453892 5.81533 0.860524 4.24942 1.71273 5.90999 2.72995 0.322858 2.85913 3.27612 2.04346 1.99438 5.72751 1.029 1.10668 2.87678 1.37853 4.13695 0.448352 1.24432 5.79992 2.48736 2.53804 0.58777 3.38963 3.52702 4.1508 2.49081 3.69573 5.85581 2.21848 2.1896 4.18035 3.56835 9.69249 1.60945 3.86536 5.6642 1.43865 6.94462 3.76839 6.6605 1.43479 5.49479 2.80685 0.583924 8.27089 0.240167 3.89583 6.15428 0.439551 0.969233 4.82426 3.38896 1.60945 0.983469 7.66692 2.68643 2.62012 1.03873 4.39929 3.45575 4.60111 6.45301 2.18431 4.13695 7.13371 0.782367 7.94967 1.9532 0.817179 3.27737 2.88599 2.81501 4.16134 7.04249 0.724498 3.21621 4.00054 0.687925 9.03524 2.59275 3.42874 5.3889 1.81464 2.45529 3.34638 3.64558 1.01977 5.6402 0.84696 9.34003 0.207649 5.98943 1.89701 3.879 2.35801 5.49528 4.89596 0.543994 0.153797 1.3979 3.03674 1.02863 5.56142 0.495798 3.0126 4.04109 3.77382 4.31409 6.91604 1.80481 1.74006 3.80015 2.60622 9.63618 1.80744 6.35043 1.6971 1.60876 0.765037 6.33532 0.936892 3.33736 6.80368 2.53804 1.83544 0.20388 4.63183 2.22293 7.96514 3.27612 2.70579 1.85496 2.98543 1.09533 5.97843 0.765003 8.03737 2.31835 1.71785 0.687925 0.710829 4.04451 0.110839 6.56162 1.63619 1.99927 2.27189 1.45207 2.82362 3.00427 1.94259 4.85572 8.85762 3.68591 3.75845 0.689762 2.91407 5.96596 0.62256 5.1192 0.403988 3.59307 1.13034 1.26684 8.43147 2.28124 2.8501 0.418548 5.0653 6.6936 0.425157 7.4889 0.53397 2.01534 1.38471 6.42609 0.502559 3.91601 6.44482 4.00645 2.47794 0.791848 0.888388 0.920673 2.7888 3.07737 2.14861 0.672546 7.79414 2.91407 7.09713 1.97321 0.655788 5.64934 0.400878 4.49545 1.98505 3.66896 6.95669 4.26858 2.58381 3.36124 6.90395 4.29101 4.13872 1.5696 7.21603 1.73968 0.765037 2.74763 2.42973 2.91433 0.603815 6.17389 1.646