<VTKFile type="UnstructuredGrid" version="0.1">
<UnstructuredGrid>
<Piece  NumberOfPoints="    2426" NumberOfCells="     405">
<Points>
<DataArray type="Float64" NumberOfComponents="3" format="ascii">
-2.24825 -16.1146 0.0
-0.976706 -17.9655 0.0
1.60872 -17.2677 0.0
1.48566 -14.6963 0.0
-0.203342 -9.31925 0.0
-1.35791 -9.14357 0.0
-1.88179 -9.41495 0.0
-3.29472 -12.9942 0.0
35.5301 23.847 0.0
35.7779 23.835 0.0
39.2514 29.3544 0.0
32.3927 28.845 0.0
32.4938 28.2006 0.0
-21.6778 7.80479 0.0
-17.502 13.381 0.0
-22.3077 15.1462 0.0
-10.3993 44.0986 0.0
-10.841 41.9316 0.0
-2.15344 43.2274 0.0
-2.32347 44.1835 0.0
-6.5619 46.5595 0.0
-7.00698 46.3967 0.0
-28.3755 -40.4834 0.0
-28.531 -36.8545 0.0
-32.7157 -38.2156 0.0
-30.723 -43.1674 0.0
-28.6794 -36.4246 0.0
-28.6967 -35.3969 0.0
-32.2128 -32.9129 0.0
-34.5703 -33.6216 0.0
-32.8642 -37.7857 0.0
13.3376 -7.20951 0.0
16.5346 -6.08902 0.0
16.98 -2.26839 0.0
13.2406 -2.40394 0.0
11.9426 -5.66369 0.0
39.1078 -43.6166 0.0
36.3789 -42.1357 0.0
31.369 -48.8164 0.0
31.6656 -49.8125 0.0
33.1623 -50.4287 0.0
34.4316 -50.0934 0.0
37.4723 -47.3803 0.0
20.1201 -25.0653 0.0
20.442 -25.8482 0.0
26.9689 -27.6677 0.0
25.9819 -22.2238 0.0
23.86 -22.3444 0.0
23.0204 -22.3996 0.0
20.2113 -24.0725 0.0
-23.6307 -35.3628 0.0
-24.1844 -35.656 0.0
-21.6472 -41.8535 0.0
-20.0346 -42.8801 0.0
-17.8208 -41.6384 0.0
-17.4857 -41.0004 0.0
-17.4907 -38.8046 0.0
-22.348 -35.8739 0.0
-22.8791 -35.541 0.0
9.92282 35.3522 0.0
13.14 34.9677 0.0
14.454 35.2964 0.0
15.1407 39.1769 0.0
11.785 39.9686 0.0
7.9489 39.6481 0.0
7.58428 37.1351 0.0
8.06334 36.4239 0.0
6.08183 -41.7288 0.0
6.39628 -41.6939 0.0
3.22569 -35.7859 0.0
0.769333 -35.4702 0.0
0.215962 -35.56 0.0
-0.495884 -37.1771 0.0
38.1629 -30.1195 0.0
41.6247 -28.4611 0.0
39.3533 -25.3303 0.0
38.3776 -25.4746 0.0
36.2297 -26.9584 0.0
35.9954 -28.4731 0.0
35.8456 -29.8771 0.0
-24.3857 -34.6994 0.0
-24.7501 -31.8044 0.0
-31.0839 -29.5257 0.0
-31.5634 -30.6991 0.0
-31.8527 -32.6419 0.0
-28.3366 -35.1259 0.0
-24.9393 -34.9926 0.0
46.0724 -23.4867 0.0
46.8763 -24.1957 0.0
48.5234 -17.6672 0.0
47.2907 -16.4147 0.0
45.0293 -16.1718 0.0
44.7972 -16.6151 0.0
-56.7986 -12.1957 0.0
-54.8624 -13.5131 0.0
-48.8316 -12.5484 0.0
-51.2412 -10.7871 0.0
-58.3006 -8.03608 0.0
-58.3067 -8.10324 0.0
-13.8516 37.6267 0.0
-17.9061 36.6207 0.0
-15.9011 31.2599 0.0
-13.9632 32.3446 0.0
-13.5188 33.128 0.0
40.6475 7.90994 0.0
46.4135 7.59161 0.0
50.7005 9.84773 0.0
50.3967 10.5115 0.0
44.365 12.1084 0.0
44.1262 13.3485 0.0
44.5961 12.5456 0.0
50.6278 10.9487 0.0
50.073 16.4029 0.0
48.3854 17.5107 0.0
36.0498 -41.9447 0.0
35.4707 -40.9002 0.0
34.844 -41.0398 0.0
29.7522 -43.6057 0.0
28.5548 -46.3121 0.0
28.9846 -46.941 0.0
31.0398 -48.6253 0.0
-50.7233 -10.5165 0.0
-48.3137 -12.2778 0.0
-47.4175 -12.6647 0.0
-46.1616 -7.6569 0.0
-46.984 -6.22051 0.0
-52.3888 -5.25406 0.0
-11.0073 -7.8936 0.0
-8.05729 -7.9089 0.0
-5.85472 -7.25476 0.0
-11.519 -1.55044 0.0
-11.9542 -1.48235 0.0
26.3634 29.8354 0.0
29.522 31.6303 0.0
29.6473 33.9514 0.0
29.1029 34.9251 0.0
24.9964 37.7135 0.0
24.6311 37.5841 0.0
-29.9152 14.7625 0.0
-28.3656 15.8589 0.0
-29.0726 22.4975 0.0
-33.8352 21.7964 0.0
-13.0847 33.308 0.0
-9.91595 34.6147 0.0
-7.59127 38.964 0.0
-12.8259 38.379 0.0
-13.4175 37.8066 0.0
24.1053 -5.56186 0.0
24.0771 -5.76403 0.0
27.1976 -9.82065 0.0
30.433 -9.72151 0.0
35.2238 -9.58066 0.0
36.5631 -8.57274 0.0
-40.3353 0.238052 0.0
-37.5999 -0.691479 0.0
-35.7286 3.38983 0.0
-39.8359 7.24555 0.0
-41.9158 8.97259 0.0
-40.9741 3.54582 0.0
-1.38632 19.4151 0.0
-2.74423 16.2645 0.0
-2.25657 14.5775 0.0
1.26709 16.1213 0.0
2.69076 17.4534 0.0
3.85435 18.5503 0.0
-0.0642143 22.4014 0.0
-29.8326 51.9068 0.0
-29.8735 51.2344 0.0
-25.1652 51.5836 0.0
-21.5637 54.2784 0.0
-21.5318 55.3042 0.0
-26.2727 55.7165 0.0
44.5228 -16.7438 0.0
41.962 -18.436 0.0
42.9844 -24.0336 0.0
45.798 -23.6154 0.0
7.81452 48.1518 0.0
8.52161 50.0719 0.0
4.12576 54.2257 0.0
3.18426 51.0211 0.0
3.57686 49.3047 0.0
-40.6607 39.6028 0.0
-38.5947 39.8785 0.0
-36.8718 43.1863 0.0
-37.8698 46.4428 0.0
-38.4626 46.3711 0.0
-42.5059 43.8711 0.0
25.8441 49.942 0.0
26.1214 52.4313 0.0
20.9755 57.6443 0.0
19.5952 56.847 0.0
19.4126 56.4982 0.0
20.6472 51.8831 0.0
24.658 50.4083 0.0
0.290816 -45.6203 0.0
-0.601632 -45.0756 0.0
-2.34138 -45.6139 0.0
-4.26759 -48.3408 0.0
-3.4547 -52.1889 0.0
-0.110625 -52.5221 0.0
35.039 -30.2387 0.0
35.1888 -28.8346 0.0
26.1654 -31.9446 0.0
25.9541 -32.2964 0.0
27.3265 -34.0734 0.0
27.5243 -34.1459 0.0
27.5755 -34.1525 0.0
32.7888 -31.414 0.0
-29.6274 -12.6345 0.0
-29.7457 -12.9865 0.0
-28.641 -14.9486 0.0
-24.8924 -15.1092 0.0
-21.8889 -14.3329 0.0
-22.2381 -11.3509 0.0
1.64167 36.0726 0.0
4.31434 35.45 0.0
6.91013 37.2173 0.0
7.27474 39.7302 0.0
7.12593 40.0513 0.0
5.58747 41.4639 0.0
4.94659 41.522 0.0
3.81719 41.247 0.0
54.3851 -29.3068 0.0
54.8359 -27.9853 0.0
51.2472 -23.38 0.0
47.4135 -24.9635 0.0
47.2176 -25.9761 0.0
58.8002 1.75087 0.0
58.3058 7.11191 0.0
57.9735 7.16184 0.0
54.9703 6.35567 0.0
54.715 -2.42679 0.0
-17.9124 58.9211 0.0
-20.2374 56.0295 0.0
-11.2545 56.6504 0.0
-10.8388 57.5769 0.0
19.6859 45.4952 0.0
20.9165 42.8757 0.0
24.4814 45.9846 0.0
26.3669 48.3054 0.0
25.8791 49.2317 0.0
24.693 49.698 0.0
32.7586 -18.8294 0.0
33.6326 -19.2243 0.0
43.9875 -14.2593 0.0
44.0146 -13.7743 0.0
43.7113 -11.801 0.0
42.938 -11.6388 0.0
38.6526 -14.2035 0.0
-29.6004 45.916 0.0
-31.0969 44.4767 0.0
-30.6678 43.4993 0.0
-26.6522 42.0183 0.0
-25.4668 42.6844 0.0
-25.0728 43.1286 0.0
-23.3886 47.4873 0.0
53.5732 -5.12564 0.0
53.9841 -3.73254 0.0
51.8077 5.20733 0.0
50.6927 3.04776 0.0
50.4907 1.19689 0.0
52.7814 -5.40289 0.0
-51.4475 -33.7786 0.0
-48.1458 -36.1467 0.0
-46.0888 -35.9596 0.0
-45.1774 -35.4485 0.0
-45.579 -32.9419 0.0
-46.7443 -31.2463 0.0
54.1237 -3.39367 0.0
54.416 -2.42534 0.0
54.6713 6.35712 0.0
52.6849 7.07229 0.0
51.9474 5.54621 0.0
30.4894 -19.6833 0.0
30.0153 -19.9699 0.0
29.9541 -26.2001 0.0
34.2237 -21.2869 0.0
32.8497 -19.9093 0.0
31.9757 -19.5144 0.0
-22.5952 -8.03134 0.0
-22.5839 -7.63216 0.0
-29.8872 -4.65548 0.0
-31.424 -5.1329 0.0
-29.6688 -9.34758 0.0
18.9234 56.3659 0.0
17.1939 55.9668 0.0
15.0392 49.5385 0.0
15.1236 49.4284 0.0
16.2006 48.8021 0.0
18.2735 49.1993 0.0
20.1581 51.7508 0.0
-40.9499 -25.5462 0.0
-40.2317 -26.4922 0.0
-32.4155 -30.1231 0.0
-31.936 -28.9497 0.0
-31.9801 -28.5105 0.0
-38.4931 -24.1689 0.0
-40.06 -24.0836 0.0
-40.824 -24.5202 0.0
2.03467 -15.3662 0.0
2.15774 -17.9376 0.0
4.80349 -25.6996 0.0
6.89384 -23.5705 0.0
7.06351 -19.1067 0.0
3.34684 -16.325 0.0
13.3917 -9.49923 0.0
12.2005 -13.4234 0.0
14.9214 -15.336 0.0
15.3346 -15.3693 0.0
16.1165 -15.3935 0.0
18.9052 -10.2539 0.0
-22.2444 -2.78199 0.0
-23.6229 2.59173 0.0
-29.1849 1.21672 0.0
-27.198 -2.2436 0.0
-22.5592 -34.9738 0.0
-22.028 -35.3067 0.0
-13.9445 -34.3082 0.0
-14.0281 -32.4085 0.0
-16.0471 -31.3493 0.0
13.8931 -23.5362 0.0
14.5173 -23.3909 0.0
15.1443 -16.2144 0.0
14.7311 -16.181 0.0
12.9664 -18.8315 0.0
10.5215 -22.943 0.0
-1.87633 35.9472 0.0
1.19902 36.0975 0.0
3.37454 41.272 0.0
-0.788769 41.0097 0.0
-1.387 40.184 0.0
-2.52382 36.6388 0.0
-16.8112 -10.9907 0.0
-16.7265 -6.17683 0.0
-16.8135 -5.13144 0.0
-17.1923 -4.48343 0.0
-18.5426 -4.42141 0.0
-20.7555 -4.32338 0.0
-21.7046 -7.64236 0.0
-21.7158 -8.04154 0.0
-21.4956 -8.64609 0.0
15.356 -41.1268 0.0
15.3396 -41.65 0.0
17.8257 -46.015 0.0
19.6641 -44.9617 0.0
19.9643 -38.4757 0.0
19.5669 -37.707 0.0
18.2715 -18.8062 0.0
18.6875 -22.6733 0.0
19.9246 -23.6386 0.0
22.7337 -21.9657 0.0
24.2528 -17.6936 0.0
59.1689 0.206215 0.0
58.8607 1.07917 0.0
54.7755 -3.0985 0.0
54.4832 -4.06683 0.0
54.0724 -5.45993 0.0
56.9041 -6.88884 0.0
58.3053 -7.48717 0.0
59.1144 -5.59139 0.0
36.9353 22.9012 0.0
36.2697 22.8674 0.0
37.3557 14.3911 0.0
39.5473 15.051 0.0
41.582 18.4933 0.0
40.526 19.7652 0.0
-0.704179 -18.8317 0.0
1.977 -26.4848 0.0
4.36197 -26.3298 0.0
4.527 -25.8959 0.0
1.88125 -18.1339 0.0
-16.8854 -41.1238 0.0
-11.0731 -43.633 0.0
-15.0397 -37.3068 0.0
-16.8904 -38.9279 0.0
-22.5045 36.4843 0.0
-20.9281 36.9173 0.0
-18.8534 43.9801 0.0
-24.5458 42.7239 0.0
-24.9399 42.2796 0.0
0.908283 -34.9442 0.0
3.36464 -35.2598 0.0
5.663 -35.4211 0.0
5.94449 -32.3037 0.0
5.78659 -28.9615 0.0
5.20552 -28.4007 0.0
-45.0683 -2.37771 0.0
-45.0216 -2.74549 0.0
-39.1742 -6.21948 0.0
-37.6068 -3.122 0.0
-37.4181 -2.02455 0.0
-37.7967 -1.3169 0.0
-40.5321 -0.38737 0.0
-44.3148 -0.477983 0.0
-6.19553 1.90232 0.0
-8.75023 -0.0625474 0.0
-2.36233 -6.49086 0.0
-3.67378 -0.43607 0.0
-4.07625 0.450442 0.0
36.9284 0.551021 0.0
39.0762 2.26822 0.0
38.4766 6.91924 0.0
37.1546 7.61247 0.0
34.7363 5.61485 0.0
-12.2635 -48.1821 0.0
-11.653 -48.5564 0.0
-7.06893 -47.2686 0.0
-10.1002 -44.4365 0.0
-10.8224 -44.1269 0.0
-16.6347 -41.6177 0.0
-16.9698 -42.2557 0.0
-42.0037 9.6381 0.0
-39.9239 7.91107 0.0
-35.5225 8.95578 0.0
-38.6489 11.1198 0.0
-42.8422 13.2 0.0
-42.7796 10.8256 0.0
-1.06771 7.69639 0.0
-0.992507 8.68719 0.0
-3.57994 11.6322 0.0
-7.62292 9.3528 0.0
-7.5811 8.17231 0.0
-6.4365 5.59013 0.0
-23.9321 3.04546 0.0
-23.7756 3.68837 0.0
-24.1886 4.43398 0.0
-25.7295 5.52081 0.0
-31.307 7.29744 0.0
-31.6847 6.92802 0.0
-32.4428 4.7547 0.0
-30.8481 2.52869 0.0
-29.4941 1.67046 0.0
-46.7584 5.42596 0.0
-48.7001 5.90625 0.0
-52.9576 2.55896 0.0
-45.4981 0.667052 0.0
-46.5985 4.95001 0.0
-31.4324 -43.8448 0.0
-31.1611 -43.1075 0.0
-33.1538 -38.1557 0.0
-34.86 -33.9916 0.0
-35.1575 -33.9777 0.0
-38.2968 -38.2175 0.0
-33.439 -42.9889 0.0
-20.2296 55.7763 0.0
-20.5359 55.4326 0.0
-20.5679 54.4069 0.0
-20.1416 53.9089 0.0
-13.5822 52.9883 0.0
-11.6907 54.1097 0.0
-11.2467 56.3972 0.0
-23.6525 -34.5343 0.0
-22.9009 -34.7125 0.0
-16.3888 -31.088 0.0
-17.0931 -30.2572 0.0
-19.8623 -27.3506 0.0
-22.6012 -28.4203 0.0
-24.017 -31.6392 0.0
19.605 10.3439 0.0
21.2119 13.5674 0.0
20.7773 19.2115 0.0
17.7729 13.9354 0.0
17.8205 11.7313 0.0
10.6329 -46.2819 0.0
11.016 -46.4921 0.0
14.6988 -41.6158 0.0
14.7152 -41.0926 0.0
12.6868 -37.2565 0.0
9.84571 -39.017 0.0
[...]
<CellData Scalars="cell variable 4" Vectors="cell vector">
<DataArray type="Float64" NumberOfComponents="3" Name="cell vector" format="ascii">
0 0 0
0 0 0
0 0 0
0 0 0
0 0 0
0 0 0
0 0 0
0 0 0
0 0 0
0 0 0
0 0 0
0 0 0
0 0 0
0 0 0
0 0 0
0 0 0
0 0 0
0 0 0
0 0 0
0 0 0
0 0 0
0 0 0
0 0 0
0 0 0
0 0 0
0 0 0
0 0 0
0 0 0
0 0 0
0 0 0
0 0 0
0 0 0
0 0 0
0 0 0
0 0 0
0 0 0
0 0 0
0 0 0
0 0 0
0 0 0
0 0 0
0 0 0
0 0 0
0 0 0
0 0 0
0 0 0
0 0 0
0 0 0
0 0 0
0 0 0
0 0 0
0 0 0
0 0 0
0 0 0
0 0 0
0 0 0
0 0 0
0 0 0
0 0 0
0 0 0
0 0 0
0 0 0
0 0 0
0 0 0
0 0 0
0 0 0
0 0 0
0 0 0
0 0 0
0 0 0
0 0 0
0 0 0
0 0 0
0 0 0
0 0 0
0 0 0
0 0 0
0 0 0
0 0 0
0 0 0
0 0 0
0 0 0
0 0 0
0 0 0
0 0 0
0 0 0
0 0 0
0 0 0
0 0 0
0 0 0
0 0 0
0 0 0
0 0 0
0 0 0
0 0 0
0 0 0
0 0 0
0 0 0
0 0 0
0 0 0
0 0 0
0 0 0
0 0 0
0 0 0
0 0 0
0 0 0
0 0 0
0 0 0
0 0 0
0 0 0
0 0 0
0 0 0
0 0 0
0 0 0
0 0 0
0 0 0
0 0 0
0 0 0
0 0 0
0 0 0
0 0 0
0 0 0
0 0 0
0 0 0
0 0 0
0 0 0
0 0 0
0 0 0
0 0 0
0 0 0
0 0 0
0 0 0
0 0 0
0 0 0
0 0 0
0 0 0
0 0 0
0 0 0
0 0 0
0 0 0
0 0 0
0 0 0
0 0 0
0 0 0
0 0 0
0 0 0
0 0 0
0 0 0
0 0 0
0 0 0
0 0 0
0 0 0
0 0 0
0 0 0
0 0 0
0 0 0
0 0 0
0 0 0
0 0 0
0 0 0
0 0 0
0 0 0
0 0 0
0 0 0
0 0 0
0 0 0
0 0 0
0 0 0
0 0 0
0 0 0
0 0 0
0 0 0
0 0 0
0 0 0
0 0 0
0 0 0
0 0 0
0 0 0
0 0 0
0 0 0
0 0 0
0 0 0
0 0 0
0 0 0
0 0 0
0 0 0
0 0 0
0 0 0
0 0 0
0 0 0
0 0 0
0 0 0
0 0 0
0 0 0
0 0 0
0 0 0
0 0 0
0 0 0
0 0 0
0 0 0
0 0 0
0 0 0
0 0 0
0 0 0
0 0 0
0 0 0
0 0 0
0 0 0
0 0 0
0 0 0
0 0 0
0 0 0
0 0 0
0 0 0
0 0 0
0 0 0
0 0 0
0 0 0
0 0 0
0 0 0
0 0 0
0 0 0
0 0 0
0 0 0
0 0 0
0 0 0
0 0 0
0 0 0
0 0 0
0 0 0
0 0 0
0 0 0
0 0 0
0 0 0
0 0 0
0 0 0
0 0 0
0 0 0
0 0 0
0 0 0
0 0 0
0 0 0
0 0 0
0 0 0
0 0 0
0 0 0
0 0 0
0 0 0
0 0 0
0 0 0
0 0 0
0 0 0
0 0 0
0 0 0
0 0 0
0 0 0
0 0 0
0 0 0
0 0 0
0 0 0
0 0 0
0 0 0
0 0 0
0 0 0
0 0 0
0 0 0
0 0 0
0 0 0
0 0 0
0 0 0
0 0 0
0 0 0
0 0 0
0 0 0
0 0 0
0 0 0
0 0 0
0 0 0
0 0 0
0 0 0
0 0 0
0 0 0
0 0 0
0 0 0
0 0 0
0 0 0
0 0 0
0 0 0
0 0 0
0 0 0
0 0 0
0 0 0
0 0 0
0 0 0
0 0 0
0 0 0
0 0 0
0 0 0
0 0 0
0 0 0
0 0 0
0 0 0
0 0 0
0 0 0
0 0 0
0 0 0
0 0 0
0 0 0
0 0 0
0 0 0
0 0 0
0 0 0
0 0 0
0 0 0
0 0 0
0 0 0
0 0 0
0 0 0
0 0 0
0 0 0
0 0 0
0 0 0
0 0 0
0 0 0
0 0 0
0 0 0
0 0 0
0 0 0
0 0 0
0 0 0
0 0 0
0 0 0
0 0 0
0 0 0
0 0 0
0 0 0
0 0 0
0 0 0
0 0 0
0 0 0
0 0 0
0 0 0
0 0 0
0 0 0
0 0 0
0 0 0
0 0 0
0 0 0
0 0 0
0 0 0
0 0 0
0 0 0
0 0 0
0 0 0
0 0 0
0 0 0
0 0 0
0 0 0
0 0 0
0 0 0
0 0 0
0 0 0
0 0 0
0 0 0
0 0 0
0 0 0
0 0 0
0 0 0
0 0 0
0 0 0
0 0 0
0 0 0
0 0 0
0 0 0
0 0 0
0 0 0
0 0 0
0 0 0
0 0 0
0 0 0
0 0 0
0 0 0
0 0 0
0 0 0
0 0 0
0 0 0
0 0 0
0 0 0
0 0 0
0 0 0
0 0 0
0 0 0
0 0 0
0 0 0
0 0 0
0 0 0
0 0 0
0 0 0
0 0 0
0 0 0
0 0 0
0 0 0
0 0 0
0 0 0
0 0 0
</DataArray>
<DataArray type="Float64" Name="cell vector length" format="ascii">
0 0 0 0 0 0 0 0 0 0 0 0 0 0 0 0 0 0 0 0 0 0 0 0 0 0 0 0 0 0 0 0 0 0 0 0 0 0 0 0 0 0 0 0 0 0 0 0 0 0 0 0 0 0 0 0 0 0 0 0 0 0 0 0 0 0 0 0 0 0 0 0 0 0 0 0 0 0 0 0 0 0 0 0 0 0 0 0 0 0 0 0 0 0 0 0 0 0 0 0 0 0 0 0 0 0 0 0 0 0 0 0 0 0 0 0 0 0 0 0 0 0 0 0 0 0 0 0 0 0 0 0 0 0 0 0 0 0 0 0 0 0 0 0 0 0 0 0 0 0 0 0 0 0 0 0 0 0 0 0 0 0 0 0 0 0 0 0 0 0 0 0 0 0 0 0 0 0 0 0 0 0 0 0 0 0 0 0 0 0 0 0 0 0 0 0 0 0 0 0 0 0 0 0 0 0 0 0 0 0 0 0 0 0 0 0 0 0 0 0 0 0 0 0 0 0 0 0 0 0 0 0 0 0 0 0 0 0 0 0 0 0 0 0 0 0 0 0 0 0 0 0 0 0 0 0 0 0 0 0 0 0 0 0 0 0 0 0 0 0 0 0 0 0 0 0 0 0 0 0 0 0 0 0 0 0 0 0 0 0 0 0 0 0 0 0 0 0 0 0 0 0 0 0 0 0 0 0 0 0 0 0 0 0 0 0 0 0 0 0 0 0 0 0 0 0 0 0 0 0 0 0 0 0 0 0 0 0 0 0 0 0 0 0 0 0 0 0 0 0 0 0 0 0 0 0 0 0 0 0 0 0 0 0 0 0 0 0 0 0 0 0 0 0 0 0 0 0 0 0 0 0 0 0 0 0 0 0 0 0 0 0 0 0 0 0 0 0 0 0 0 0 0 0 0 
</DataArray>
<DataArray type="Float64" Name="cell variable 4" format="ascii">
1.11547 1.06245 1.12037 1.07467 0.90618 0.90618 1.11547 0.94865 1.11547 0.90618 1.14226 1.04461 1.11547 1.04461 0.912892 0.919422 1.07467 1.10185 1.10185 0.94865 0.919422 1.12037 1.06245 1.00681 1.07467 1.10185 1.00681 1.14226 0.99432 1.11547 0.980966 0.99432 0.980966 1.04461 1.11547 1.12037 1.07467 0.912892 0.912892 0.763876 0.980966 1.11547 0.99432 1.10185 0.919422 1.10185 1.11547 1.12037 0.980966 0.919422 1.11547 1.11547 1.12037 1.04461 1.11547 1.07467 1.12037 0.94865 1.11547 0.912892 1.10185 1.11547 1.04461 1.07467 1.04461 0.919422 1.12037 1.10185 1.04461 1.00681 1.12037 1.12037 1.00681 0.90618 0.763876 1.04461 1.14226 0.94865 1.00681 1.11547 1.04461 0.919422 1.11547 0.848855 1.11547 1.11547 1.04461 1.10185 1.14226 1.07467 0.94865 0.980966 1.11547 1.04461 0.980966 0.980966 1.00681 0.919422 1.12037 1.11547 1.04461 1.04461 0.919422 0.94865 1.06245 1.06245 0.99432 1.12037 1.04461 0.912892 1.00681 1.00681 1.10185 0.848855 1.00681 1.14226 1.14226 1.07467 1.11547 1.14226 1.14226 1.07467 1.00681 0.94865 1.06245 1.14226 1.04461 1.07467 0.99432 1.04461 1.11547 1.11547 1.00681 1.07467 1.11547 1.06245 1.06245 0.99432 1.04461 0.919422 0.90618 1.00681 1.12037 0.919422 0.90618 0.99432 1.07467 1.07467 0.980966 0.848855 1.04461 1.14226 0.919422 0.919422 1.00681 0.789941 1.10185 1.12037 1.12037 1.04461 1.07467 1.00681 1.04461 1.06245 1.00681 1.14226 1.04461 1.11547 1.11547 1.10185 1.10185 0.919422 1.12037 0.919422 1.00681 1.04461 1.00681 0.919422 1.12037 0.919422 1.12037 1.00681 1.00681 1.11547 1.00681 0.980966 1.06245 1.11547 1.04461 1.06245 1.07467 0.980966 1.07467 0.90618 0.99432 0.919422 0.94865 0.94865 0.8063 1.11547 0.94865 0.90618 1.11547 0.912892 1.12037 1.04461 0.94865 1.04461 1.04461 0.980966 1.07467 1.10185 1.07467 1.06245 0.980966 1.10185 0.94865 1.12037 1.07467 1.07467 1.04461 1.04461 0.980966 1.10185 1.04461 1.06245 1.11547 1.10185 1.11547 0.912892 1.07467 0.90618 0.848855 1.10185 1.04461 0.919422 1.10185 1.10185 0.980966 0.980966 1.10185 0.94865 0.919422 1.11547 0.94865 1.04461 0.90618 1.06245 1.07467 1.07467 1.10185 0.848855 0.980966 1.14226 0.919422 1.12037 1.10185 0.99432 1.06245 1.14226 1.11547 1.14226 1.06245 0.919422 0.94865 1.14226 1.14226 0.912892 1.14226 0.919422 1.11547 0.8063 1.12037 1.04461 1.14226 1.11547 1.00681 0.848855 0.94865 1.11547 1.00681 1.06245 1.10185 1.04461 1.14226 1.12037 1.12037 1.14226 1.10185 1.00681 1.11547 1.14226 0.94865 0.90618 1.10185 1.07467 1.00681 1.12037 1.06245 1.00681 0.919422 1.10185 1.12037 1.10185 0.912892 1.00681 1.11547 1.07467 0.94865 1.06245 1.07467 0.919422 1.12037 1.07467 0.912892 1.07467 1.10185 1.11547 0.980966 1.10185 1.11547 1.12037 1.10185 1.10185 0.919422 0.848855 1.07467 1.14226 1.07467 1.00681 1.04461 1.14226 1.14226 1.11547 1.11547 0.980966 0.90618 0.980966 1.04461 0.919422 0.90618 0.919422 1.00681 0.94865 0.99432 1.06245 0.8063 1.11547 1.11547 1.12037 0.90618 1.12037 1.07467 1.12037 1.00681 0.919422 1.00681 0.90618 1.04461 1.14226 1.12037 1.07467 0.919422 0.94865 0.919422 1.14226 0.980966 1.14226 1.11547 1.11547 0.980966 1.12037 1.00681 1.10185 1.11547 1.04461 1.12037 0.919422 1.10185 1.07467 1.10185 1.11547 1.07467 1.00681 1.11547 0.919422 1.04461 0.90618 1.14226 0.912892 1.07467 1.04461 0.980966 1.07467 1.04461 1.00681 1.00681 0.919422 1.04461 1.11547 0.912892 1.11547 0.94865 1.11547 1.04461 
</DataArray>
<DataArray type="Float64" Name="cell variable 5" format="ascii">
0.00797274 0.00878122 0.00790366 0.00858434 0.0120314 0.0120314 0.00797274 0.0109898 0.00797274 0.0120314 0.00760594 0.00908091 0.00797274 0.00908091 0.0118572 0.0116913 0.00858434 0.00816951 0.00816951 0.0109898 0.0116913 0.00790366 0.00878122 0.00976872 0.00858434 0.00816951 0.00976872 0.00760594 0.0100133 0.00797274 0.0102849 0.0100133 0.0102849 0.00908091 0.00797274 0.00790366 0.00858434 0.0118572 0.0118572 0.016849 0.0102849 0.00797274 0.0100133 0.00816951 0.0116913 0.00816951 0.00797274 0.00790366 0.0102849 0.0116913 0.00797274 0.00797274 0.00790366 0.00908091 0.00797274 0.00858434 0.00790366 0.0109898 0.00797274 0.0118572 0.00816951 0.00797274 0.00908091 0.00858434 0.00908091 0.0116913 0.00790366 0.00816951 0.00908091 0.00976872 0.00790366 0.00790366 0.00976872 0.0120314 0.016849 0.00908091 0.00760594 0.0109898 0.00976872 0.00797274 0.00908091 0.0116913 0.00797274 0.0136882 0.00797274 0.00797274 0.00908091 0.00816951 0.00760594 0.00858434 0.0109898 0.0102849 0.00797274 0.00908091 0.0102849 0.0102849 0.00976872 0.0116913 0.00790366 0.00797274 0.00908091 0.00908091 0.0116913 0.0109898 0.00878122 0.00878122 0.0100133 0.00790366 0.00908091 0.0118572 0.00976872 0.00976872 0.00816951 0.0136882 0.00976872 0.00760594 0.00760594 0.00858434 0.00797274 0.00760594 0.00760594 0.00858434 0.00976872 0.0109898 0.00878122 0.00760594 0.00908091 0.00858434 0.0100133 0.00908091 0.00797274 0.00797274 0.00976872 0.00858434 0.00797274 0.00878122 0.00878122 0.0100133 0.00908091 0.0116913 0.0120314 0.00976872 0.00790366 0.0116913 0.0120314 0.0100133 0.00858434 0.00858434 0.0102849 0.0136882 0.00908091 0.00760594 0.0116913 0.0116913 0.00976872 0.0157727 0.00816951 0.00790366 0.00790366 0.00908091 0.00858434 0.00976872 0.00908091 0.00878122 0.00976872 0.00760594 0.00908091 0.00797274 0.00797274 0.00816951 0.00816951 0.0116913 0.00790366 0.0116913 0.00976872 0.00908091 0.00976872 0.0116913 0.00790366 0.0116913 0.00790366 0.00976872 0.00976872 0.00797274 0.00976872 0.0102849 0.00878122 0.00797274 0.00908091 0.00878122 0.00858434 0.0102849 0.00858434 0.0120314 0.0100133 0.0116913 0.0109898 0.0109898 0.0151488 0.00797274 0.0109898 0.0120314 0.00797274 0.0118572 0.00790366 0.00908091 0.0109898 0.00908091 0.00908091 0.0102849 0.00858434 0.00816951 0.00858434 0.00878122 0.0102849 0.00816951 0.0109898 0.00790366 0.00858434 0.00858434 0.00908091 0.00908091 0.0102849 0.00816951 0.00908091 0.00878122 0.00797274 0.00816951 0.00797274 0.0118572 0.00858434 0.0120314 0.0136882 0.00816951 0.00908091 0.0116913 0.00816951 0.00816951 0.0102849 0.0102849 0.00816951 0.0109898 0.0116913 0.00797274 0.0109898 0.00908091 0.0120314 0.00878122 0.00858434 0.00858434 0.00816951 0.0136882 0.0102849 0.00760594 0.0116913 0.00790366 0.00816951 0.0100133 0.00878122 0.00760594 0.00797274 0.00760594 0.00878122 0.0116913 0.0109898 0.00760594 0.00760594 0.0118572 0.00760594 0.0116913 0.00797274 0.0151488 0.00790366 0.00908091 0.00760594 0.00797274 0.00976872 0.0136882 0.0109898 0.00797274 0.00976872 0.00878122 0.00816951 0.00908091 0.00760594 0.00790366 0.00790366 0.00760594 0.00816951 0.00976872 0.00797274 0.00760594 0.0109898 0.0120314 0.00816951 0.00858434 0.00976872 0.00790366 0.00878122 0.00976872 0.0116913 0.00816951 0.00790366 0.00816951 0.0118572 0.00976872 0.00797274 0.00858434 0.0109898 0.00878122 0.00858434 0.0116913 0.00790366 0.00858434 0.0118572 0.00858434 0.00816951 0.00797274 0.0102849 0.00816951 0.00797274 0.00790366 0.00816951 0.00816951 0.0116913 0.0136882 0.00858434 0.00760594 0.00858434 0.00976872 0.00908091 0.00760594 0.00760594 0.00797274 0.00797274 0.0102849 0.0120314 0.0102849 0.00908091 0.0116913 0.0120314 0.0116913 0.00976872 0.0109898 0.0100133 0.00878122 0.0151488 0.00797274 0.00797274 0.00790366 0.0120314 0.00790366 0.00858434 0.00790366 0.00976872 0.0116913 0.00976872 0.0120314 0.00908091 0.00760594 0.00790366 0.00858434 0.0116913 0.0109898 0.0116913 0.00760594 0.0102849 0.00760594 0.00797274 0.00797274 0.0102849 0.00790366 0.00976872 0.00816951 0.00797274 0.00908091 0.00790366 0.0116913 0.00816951 0.00858434 0.00816951 0.00797274 0.00858434 0.00976872 0.00797274 0.0116913 0.00908091 0.0120314 0.00760594 0.0118572 0.00858434 0.00908091 0.0102849 0.00858434 0.00908091 0.00976872 0.00976872 0.0116913 0.00908091 0.00797274 0.0118572 0.00797274 0.0109898 0.00797274 0.00908091 
</DataArray>
<DataArray type="Float64" Name="cell variable 6" format="ascii">
4.32387e-06 5.74138e-06 4.21468e-06 5.3719e-06 1.4406e-05 1.4406e-05 4.32387e-06 1.10661e-05 4.32387e-06 1.4406e-05 3.76475e-06 6.33494e-06 4.32387e-06 6.33494e-06 1.38076e-05 1.32528e-05 5.3719e-06 4.64493e-06 4.64493e-06 1.10661e-05 1.32528e-05 4.21468e-06 5.74138e-06 7.8448e-06 5.3719e-06 4.64493e-06 7.8448e-06 3.76475e-06 8.43313e-06 4.32387e-06 9.11938e-06 8.43313e-06 9.11938e-06 6.33494e-06 4.32387e-06 4.21468e-06 5.3719e-06 1.38076e-05 1.38076e-05 3.81646e-05 9.11938e-06 4.32387e-06 8.43313e-06 4.64493e-06 1.32528e-05 4.64493e-06 4.32387e-06 4.21468e-06 9.11938e-06 1.32528e-05 4.32387e-06 4.32387e-06 4.21468e-06 6.33494e-06 4.32387e-06 5.3719e-06 4.21468e-06 1.10661e-05 4.32387e-06 1.38076e-05 4.64493e-06 4.32387e-06 6.33494e-06 5.3719e-06 6.33494e-06 1.32528e-05 4.21468e-06 4.64493e-06 6.33494e-06 7.8448e-06 4.21468e-06 4.21468e-06 7.8448e-06 1.4406e-05 3.81646e-05 6.33494e-06 3.76475e-06 1.10661e-05 7.8448e-06 4.32387e-06 6.33494e-06 1.32528e-05 4.32387e-06 2.09522e-05 4.32387e-06 4.32387e-06 6.33494e-06 4.64493e-06 3.76475e-06 5.3719e-06 1.10661e-05 9.11938e-06 4.32387e-06 6.33494e-06 9.11938e-06 9.11938e-06 7.8448e-06 1.32528e-05 4.21468e-06 4.32387e-06 6.33494e-06 6.33494e-06 1.32528e-05 1.10661e-05 5.74138e-06 5.74138e-06 8.43313e-06 4.21468e-06 6.33494e-06 1.38076e-05 7.8448e-06 7.8448e-06 4.64493e-06 2.09522e-05 7.8448e-06 3.76475e-06 3.76475e-06 5.3719e-06 4.32387e-06 3.76475e-06 3.76475e-06 5.3719e-06 7.8448e-06 1.10661e-05 5.74138e-06 3.76475e-06 6.33494e-06 5.3719e-06 8.43313e-06 6.33494e-06 4.32387e-06 4.32387e-06 7.8448e-06 5.3719e-06 4.32387e-06 5.74138e-06 5.74138e-06 8.43313e-06 6.33494e-06 1.32528e-05 1.4406e-05 7.8448e-06 4.21468e-06 1.32528e-05 1.4406e-05 8.43313e-06 5.3719e-06 5.3719e-06 9.11938e-06 2.09522e-05 6.33494e-06 3.76475e-06 1.32528e-05 1.32528e-05 7.8448e-06 3.156e-05 4.64493e-06 4.21468e-06 4.21468e-06 6.33494e-06 5.3719e-06 7.8448e-06 6.33494e-06 5.74138e-06 7.8448e-06 3.76475e-06 6.33494e-06 4.32387e-06 4.32387e-06 4.64493e-06 4.64493e-06 1.32528e-05 4.21468e-06 1.32528e-05 7.8448e-06 6.33494e-06 7.8448e-06 1.32528e-05 4.21468e-06 1.32528e-05 4.21468e-06 7.8448e-06 7.8448e-06 4.32387e-06 7.8448e-06 9.11938e-06 5.74138e-06 4.32387e-06 6.33494e-06 5.74138e-06 5.3719e-06 9.11938e-06 5.3719e-06 1.4406e-05 8.43313e-06 1.32528e-05 1.10661e-05 1.10661e-05 2.80904e-05 4.32387e-06 1.10661e-05 1.4406e-05 4.32387e-06 1.38076e-05 4.21468e-06 6.33494e-06 1.10661e-05 6.33494e-06 6.33494e-06 9.11938e-06 5.3719e-06 4.64493e-06 5.3719e-06 5.74138e-06 9.11938e-06 4.64493e-06 1.10661e-05 4.21468e-06 5.3719e-06 5.3719e-06 6.33494e-06 6.33494e-06 9.11938e-06 4.64493e-06 6.33494e-06 5.74138e-06 4.32387e-06 4.64493e-06 4.32387e-06 1.38076e-05 5.3719e-06 1.4406e-05 2.09522e-05 4.64493e-06 6.33494e-06 1.32528e-05 4.64493e-06 4.64493e-06 9.11938e-06 9.11938e-06 4.64493e-06 1.10661e-05 1.32528e-05 4.32387e-06 1.10661e-05 6.33494e-06 1.4406e-05 5.74138e-06 5.3719e-06 5.3719e-06 4.64493e-06 2.09522e-05 9.11938e-06 3.76475e-06 1.32528e-05 4.21468e-06 4.64493e-06 8.43313e-06 5.74138e-06 3.76475e-06 4.32387e-06 3.76475e-06 5.74138e-06 1.32528e-05 1.10661e-05 3.76475e-06 3.76475e-06 1.38076e-05 3.76475e-06 1.32528e-05 4.32387e-06 2.80904e-05 4.21468e-06 6.33494e-06 3.76475e-06 4.32387e-06 7.8448e-06 2.09522e-05 1.10661e-05 4.32387e-06 7.8448e-06 5.74138e-06 4.64493e-06 6.33494e-06 3.76475e-06 4.21468e-06 4.21468e-06 3.76475e-06 4.64493e-06 7.8448e-06 4.32387e-06 3.76475e-06 1.10661e-05 1.4406e-05 4.64493e-06 5.3719e-06 7.8448e-06 4.21468e-06 5.74138e-06 7.8448e-06 1.32528e-05 4.64493e-06 4.21468e-06 4.64493e-06 1.38076e-05 7.8448e-06 4.32387e-06 5.3719e-06 1.10661e-05 5.74138e-06 5.3719e-06 1.32528e-05 4.21468e-06 5.3719e-06 1.38076e-05 5.3719e-06 4.64493e-06 4.32387e-06 9.11938e-06 4.64493e-06 4.32387e-06 4.21468e-06 4.64493e-06 4.64493e-06 1.32528e-05 2.09522e-05 5.3719e-06 3.76475e-06 5.3719e-06 7.8448e-06 6.33494e-06 3.76475e-06 3.76475e-06 4.32387e-06 4.32387e-06 9.11938e-06 1.4406e-05 9.11938e-06 6.33494e-06 1.32528e-05 1.4406e-05 1.32528e-05 7.8448e-06 1.10661e-05 8.43313e-06 5.74138e-06 2.80904e-05 4.32387e-06 4.32387e-06 4.21468e-06 1.4406e-05 4.21468e-06 5.3719e-06 4.21468e-06 7.8448e-06 1.32528e-05 7.8448e-06 1.4406e-05 6.33494e-06 3.76475e-06 4.21468e-06 5.3719e-06 1.32528e-05 1.10661e-05 1.32528e-05 3.76475e-06 9.11938e-06 3.76475e-06 4.32387e-06 4.32387e-06 9.11938e-06 4.21468e-06 7.8448e-06 4.64493e-06 4.32387e-06 6.33494e-06 4.21468e-06 1.32528e-05 4.64493e-06 5.3719e-06 4.64493e-06 4.32387e-06 5.3719e-06 7.8448e-06 4.32387e-06 1.32528e-05 6.33494e-06 1.4406e-05 3.76475e-06 1.38076e-05 5.3719e-06 6.33494e-06 9.11938e-06 5.3719e-06 6.33494e-06 7.8448e-06 7.8448e-06 1.32528e-05 6.33494e-06 4.32387e-06 1.38076e-05 4.32387e-06 1.10661e-05 4.32387e-06 6.33494e-06 
</DataArray>
<DataArray type="Float64" Name="cell variable 7" format="ascii">