<VTKFile type="UnstructuredGrid" version="0.1">
<UnstructuredGrid>
<Piece  NumberOfPoints="    3385" NumberOfCells="    2485">
<Points>
<DataArray type="Float64" NumberOfComponents="3" format="ascii">
10.1998 26.8887 0 
12.7924 11.1191 0 
-14.4086 -16.9876 0 
27.3287 -43.2745 0 
-56.5391 8.83001 0 
-55.4955 26.3569 0 
-42.0647 -33.6117 0 
44.9502 18.7049 0 
42.6743 -2.93943 0 
2.66543 -39.9801 0 
20.892 -1.65103 0 
-4.47367 -51.5645 0 
0.114693 -47.9089 0 
41.3848 -37.4217 0 
21.9695 21.5373 0 
15.2143 -59.1668 0 
-32.3727 27.9347 0 
-9.88848 27.0286 0 
-38.2548 19.4638 0 
48.5446 -28.4346 0 
-5.8235 42.4174 0 
28.986 12.7065 0 
41.7541 0.269121 0 
9.08618 1.03342 0 
2.0937 -47.4142 0 
-18.2171 17.5987 0 
-39.2544 -47.8732 0 
-21.698 46.9658 0 
12.6755 -14.9929 0 
-0.953831 -33.6886 0 
2.56533 -28.4517 0 
-25.3319 -29.3604 0 
-32.4002 50.4509 0 
-44.4032 -3.04744 0 
-43.6313 -22.6337 0 
-10.3902 -21.1863 0 
-20.366 53.74 0 
48.5097 23.1402 0 
-8.20419 6.79489 0 
-32.1395 4.47085 0 
-24.651 -30.1367 0 
-10.948 -31.6215 0 
-0.658819 -15.8087 0 
-18.4788 -56.5598 0 
48.5094 14.0571 0 
-8.45455 35.327 0 
-18.7147 -0.899196 0 
43.1949 8.05143 0 
8.07943 32.3364 0 
46.7415 38.0198 0 
-38.8837 -48.3347 0 
-1.48833 -47.8087 0 
-38.6998 -14.1998 0 
30.0074 4.06594 0 
-39.0105 -36.8612 0 
5.51002 -51.3154 0 
25.8699 28.5073 0 
33.645 39.9348 0 
19.979 -41.2161 0 
9.25651 -45.7855 0 
-39.4554 49.1157 0 
-54.4112 0.919706 0 
-0.999991 -47.7119 0 
59.9278 9.75355 0 
-17.2817 37.43 0 
-20.5297 -51.1594 0 
36.564 47.285 0 
35.8242 -27.393 0 
36.6926 -27.1248 0 
-27.7706 18.5572 0 
22.066 -6.11826 0 
-26.725 56.3895 0 
4.22626 -40.9296 0 
54.4824 -19.4 0 
26.8569 4.36067 0 
28.9026 -4.69342 0 
37.82 -42.3845 0 
-27.3844 19.3672 0 
-6.05266 -31.9708 0 
53.5163 17.9708 0 
-52.976 0.0310062 0 
14.9673 23.3385 0 
-15.8702 -15.9123 0 
-12.3533 58.0257 0 
-50.0062 24.5503 0 
2.01271 40.4659 0 
47.7297 15.8654 0 
-40.8038 17.314 0 
-47.7113 32.3308 0 
-57.6865 -15.2266 0 
-32.0893 -18.7739 0 
-23.99 -49.0622 0 
35.9226 49.6988 0 
11.4573 19.2738 0 
51.4312 -28.5647 0 
36.4428 33.2285 0 
47.4688 -3.53159 0 
-50.3882 -2.04102 0 
35.0643 -49.1334 0 
17.8352 -54.9881 0 
11.3233 -45.8876 0 
51.6876 -8.38809 0 
-22.7223 37.1064 0 
-23.1051 -7.21408 0 
51.0535 -5.83231 0 
-21.7267 -0.703626 0 
-26.6057 -57.5022 0 
49.3075 -4.29359 0 
26.554 -48.0671 0 
-29.5379 24.4856 0 
-37.028 -30.8419 0 
-27.2809 19.5008 0 
44.077 33.4199 0 
43.5148 -12.7537 0 
26.107 27.4868 0 
-0.426319 -22.247 0 
-28.8818 34.1711 0 
11.7908 -39.5601 0 
-8.70326 -36.2023 0 
60.3923 -8.23776 0 
49.2215 11.034 0 
11.3908 -1.05483 0 
-38.1772 20.2821 0 
-1.27868 18.9529 0 
38.2929 -45.741 0 
-15.7794 44.8694 0 
-25.4066 -34.0012 0 
28.2241 16.5952 0 
7.82918 9.76152 0 
-5.94809 51.1689 0 
-27.4747 -49.5955 0 
-35.5886 -2.25722 0 
17.4367 7.07372 0 
-19.3687 -29.5141 0 
-16.2744 45.9744 0 
-33.5793 43.0597 0 
52.9103 -9.77296 0 
27.3921 -38.6521 0 
7.71709 13.8895 0 
-62.4922 -4.48587 0 
26.8107 43.0851 0 
-46.7252 10.094 0 
18.344 36.0162 0 
-9.6261 26.8302 0 
-51.9167 11.0489 0 
4.30421 51.317 0 
41.3104 45.2002 0 
36.7518 -42.2185 0 
-40.6482 -3.52037 0 
-0.338461 39.8049 0 
27.8489 32.2888 0 
48.1527 -11.2065 0 
-43.3043 -3.99333 0 
17.056 -25.5927 0 
-35.7931 -30.7071 0 
-50.1371 -25.0093 0 
13.9055 30.2461 0 
31.3654 19.5399 0 
-39.1186 33.1947 0 
12.6624 57.4155 0 
-35.9862 -6.22616 0 
-20.1238 -23.3806 0 
-51.0007 -28.5193 0 
22.5111 -49.1559 0 
56.6397 16.0026 0 
35.4034 -10.893 0 
30.4714 21.1084 0 
28.1036 -29.0752 0 
2.47685 28.592 0 
-27.7827 -40.9148 0 
42.7157 11.6448 0 
-42.7875 26.4948 0 
-54.9899 23.4877 0 
-20.4954 -42.0532 0 
9.7733 -12.5681 0 
-15.0385 31.1783 0 
-22.768 41.1434 0 
-44.1227 4.8131 0 
37.2897 46.5056 0 
23.2615 -13.7549 0 
-42.9496 38.4364 0 
0.782168 38.4467 0 
-44.8115 -33.0801 0 
-3.03461 6.68837 0 
-18.2764 30.787 0 
35.7467 -34.4934 0 
-58.431 14.7979 0 
17.5153 47.9637 0 
17.1442 -16.4895 0 
-44.8107 -21.2222 0 
3.91976 35.8111 0 
24.6725 9.36452 0 
-9.11904 -26.9937 0 
-62.3161 -6.94958 0 
-43.4946 8.47813 0 
49.387 -28.9807 0 
9.68184 19.6138 0 
-30.8635 15.1572 0 
5.7763 7.58865 0 
39.5637 -18.8217 0 
10.2554 36.4413 0 
48.0367 -4.23688 0 
-22.9028 18.4656 0 
17.9311 48.9668 0 
-20.9067 -51.1793 0 
-2.45297 23.3382 0 
40.8874 -40.4167 0 
-22.5156 56.6197 0 
-3.1624 -8.14626 0 
0.197657 -22.235 0 
-8.13684 -36.8297 0 
-31.0353 -51.5496 0 
-15.5009 43.8535 0 
46.4679 -25.951 0 
10.5792 39.6917 0 
46.7533 -36.9207 0 
-10.982 50.9951 0 
-9.5985 29.5781 0 
59.8411 -2.60487 0 
-7.60578 41.4848 0 
-22.2404 31.088 0 
-43.3713 5.60644 0 
-13.8971 60.3935 0 
46.7172 31.2425 0 
19.3265 39.2631 0 
28.8956 -50.4883 0 
46.3585 38.4361 0 
45.0047 -30.3048 0 
-50.1003 -15.7627 0 
-7.62419 36.7344 0 
-3.5808 32.4188 0 
26.1589 -3.73952 0 
-48.1301 35.7217 0 
-44.744 29.4252 0 
-41.5015 -23.0308 0 
-30.2981 -44.9844 0 
22.0858 38.7617 0 
-13.0762 10.9094 0 
-38.5501 18.6269 0 
-33.6719 -26.6308 0 
-61.1858 -9.29795 0 
-2.09071 33.8804 0 
-30.4337 -11.008 0 
-62.1027 -3.09868 0 
35.6132 -17.7977 0 
-50.4806 24.1288 0 
2.92984 19.9751 0 
-8.73459 -34.254 0 
-15.4071 29.4538 0 
-45.1456 44.4186 0 
-37.3469 39.6902 0 
28.1465 -32.5263 0 
12.0203 11.7998 0 
43.5069 -16.9255 0 
11.5444 -33.1587 0 
-14.3741 -37.2316 0 
-48.069 -9.6152 0 
16.6291 -48.7703 0 
42.1896 -2.67746 0 
-23.385 -22.7358 0 
-32.7053 -50.533 0 
9.34637 -12.0443 0 
-41.8644 26.5009 0 
35.0037 -1.95623 0 
5.77032 -26.1988 0 
24.9627 -16.4215 0 
-13.7237 15.341 0 
-21.6224 -33.2793 0 
-38.217 41.1272 0 
43.4137 -23.0555 0 
-20.9284 42.9633 0 
-27.4101 -41.9799 0 
-23.4959 -3.51135 0 
-36.1703 -32.8737 0 
24.0394 15.0616 0 
-0.000671633 -28.7528 0 
-25.3632 -35.3086 0 
-39.8552 33.0453 0 
-34.3374 44.7025 0 
-9.42147 -7.67458 0 
15.98 58.206 0 
-56.9926 0.923429 0 
-7.97604 -26.9241 0 
28.7016 -7.64411 0 
13.9473 -9.70617 0 
-55.5355 0.643478 0 
-12.6615 60.551 0 
13.4286 51.6875 0 
22.2362 -54.1517 0 
61.7274 8.96979 0 
-48.8573 -21.6534 0 
-6.96498 -39.3829 0 
-5.09924 27.2279 0 
-27.235 25.0665 0 
-43.9552 8.61976 0 
5.84564 5.57856 0 
-17.6842 -42.0786 0 
-0.18226 39.0876 0 
17.6444 57.9067 0 
-8.24976 -44.3676 0 
-12.3885 11.327 0 
10.719 30.4422 0 
-11.015 -45.0197 0 
33.3474 15.2458 0 
4.63271 53.6036 0 
-26.1302 56.4945 0 
11.1478 47.9199 0 
2.35025 20.5018 0 
51.5363 33.4794 0 
33.3763 38.3545 0 
2.82524 55.7337 0 
-12.8111 52.9207 0 
-14.4285 -50.1171 0 
19.0385 -41.2471 0 
21.9671 -7.73992 0 
-36.2932 6.48886 0 
-24.3495 19.3983 0 
-8.91788 -19.9031 0 
44.0284 -14.5883 0 
-12.0032 -52.5674 0 
35.7667 -33.4698 0 
43.885 -9.87044 0 
-5.05151 60.8924 0 
34.3487 2.86621 0 
7.69495 -53.9564 0 
-0.820894 -4.4382 0 
-14.6334 -12.3139 0 
10.2306 -32.69 0 
26.7692 -44.2929 0 
-37.2271 1.42183 0 
24.9372 -17.3639 0 
-29.3929 -2.51392 0 
2.55559 -13.3818 0 
-36.0327 -38.2034 0 
27.2381 38.9072 0 
26.8443 -27.7127 0 
-39.2292 11.2359 0 
-60.5713 13.0914 0 
-61.5658 -8.92848 0 
-28.8214 23.5965 0 
-6.90233 41.9835 0 
-43.9879 -40.9562 0 
24.9535 -17.0744 0 
1.85938 28.3014 0 
-26.4296 -57.5652 0 
17.2869 57.9191 0 
-2.88318 25.783 0 
50.7144 -21.9712 0 
-12.439 8.47059 0 
39.1174 12.0436 0 
37.1658 5.01802 0 
-19.6636 -51.6011 0 
-21.4359 8.68633 0 
-3.79712 -8.30168 0 
10.9876 -16.2242 0 
-28.2383 48.6315 0 
51.4247 25.2675 0 
-0.576365 39.9308 0 
54.9713 19.6615 0 
19.9195 -44.2232 0 
0.0386909 -56.9424 0 
2.85649 20.0523 0 
-56.8044 -9.8152 0 
-27.5815 8.45838 0 
18.319 -19.1681 0 
4.40587 24.1823 0 
-11.4193 51.1787 0 
-25.5392 -48.7913 0 
52.4243 -5.30005 0 
1.04534 -0.83926 0 
-3.08134 -27.1147 0 
26.1112 6.89628 0 
-20.2873 -42.0969 0 
18.2177 43.518 0 
5.22313 -27.3153 0 
-28.6227 -33.6633 0 
31.4145 -32.9728 0 
0.514051 -48.0156 0 
-14.9277 16.9774 0 
4.34115 -7.98654 0 
39.1682 39.2102 0 
-36.2008 35.5023 0 
17.9088 12.2368 0 
16.2143 8.42171 0 
10.7542 -11.7721 0 
-38.9076 23.094 0 
52.5873 32.2532 0 
53.6378 -9.91507 0 
-12.9289 44.5524 0 
-39.3044 47.2972 0 
-36.1712 16.9363 0 
-6.61365 5.24156 0 
11.9906 40.9502 0 
-24.2278 -9.20378 0 
23.7062 -11.9316 0 
-51.7282 3.01175 0 
-8.78439 6.86042 0 
-43.2474 -27.3808 0 
-16.0171 43.3626 0 
-25.3739 -35.1324 0 
49.7055 -36.1713 0 
-23.6237 -32.5639 0 
13.8207 48.4506 0 
43.5862 -38.4941 0 
3.18248 -41.1184 0 
-17.0073 -57.5551 0 
35.2483 -43.089 0 
-32.2766 15.1165 0 
-7.3451 -53.6015 0 
15.6361 27.827 0 
-50.838 15.8859 0 
47.0749 33.833 0 
39.48 25.6721 0 
-35.4697 26.9215 0 
-55.3028 22.8916 0 
-20.6158 26.3058 0 
-7.49831 0.342396 0 
0.25588 12.4948 0 
-58.9856 -10.748 0 
-8.77143 -46.3961 0 
21.0809 -34.3694 0 
26.9469 47.0621 0 
9.84786 3.68786 0 
32.3477 17.505 0 
-21.5058 48.6787 0 
-3.91628 31.2093 0 
-50.9155 -33.7228 0 
-8.59887 -13.7417 0 
-48.2341 37.1497 0 
10.6644 18.986 0 
23.5288 -37.9396 0 
44.2779 41.8961 0 
-56.7749 17.3063 0 
-13.6457 11.432 0 
-28.0028 -1.4484 0 
20.6371 -26.3522 0 
-10.3325 -1.80956 0 
7.96083 -8.51966 0 
-28.1454 42.9293 0 
55.1959 1.75944 0 
-14.6065 -24.4076 0 
6.64039 -40.2067 0 
9.99871 25.2985 0 
57.4211 11.061 0 
-3.42274 -58.9025 0 
-33.5819 -27.8945 0 
-14.7744 -9.8412 0 
-36.1162 -31.3034 0 
-15.5008 -24.1298 0 
50.0285 24.7439 0 
-50.3024 -20.7836 0 
35.7597 -16.4278 0 
43.4001 1.35529 0 
1.943 50.0527 0 
33.5185 30.1475 0 
25.6159 -27.8929 0 
23.0442 -38.2161 0 
18.0349 -26.348 0 
-6.93525 -52.8088 0 
23.5559 13.5325 0 
-48.5045 -14.8023 0 
-34.9111 -25.4357 0 
43.1708 23.9664 0 
-31.5465 41.1104 0 
-57.4791 16.601 0 
16.5474 -30.7477 0 
19.4844 47.4943 0 
36.678 17.8677 0 
36.3108 33.9283 0 
60.49 -7.6722 0 
-39.9663 -14.6969 0 
-14.3084 52.9129 0 
20.7284 -33.5324 0 
14.2161 17.9399 0 
14.3191 -3.89267 0 
-11.6963 -26.8131 0 
-1.63646 -28.3096 0 
50.3929 -35.073 0 
19.7317 -22.0452 0 
4.12253 30.5696 0 
18.0494 47.3483 0 
-9.07388 -58.0719 0 
17.5027 -25.6777 0 
-13.7158 -7.52059 0 
14.1055 48.5602 0 
-10.2399 -6.98106 0 
-17.5428 -57.529 0 
35.6836 -9.04421 0 
6.84001 -17.405 0 
-10.6022 -32.581 0 
28.152 3.33763 0 
-36.3151 -21.3495 0 
-4.09325 42.4174 0 
[...]
<CellData Scalars="wall variable 0">
<DataArray type="Float64" Name="wall length" format="ascii">
2.55157 6.81722 1.32233 1.48801 1.93382 1.63519 1.31033 1.29052 2.71882 3.55899 0.833124 4.35929 1.33385 6.55786 4.18341 7.46474 2.06525 1.49779 6.72621 0.753082 5.69926 3.31505 5.73373 1.68985 3.23518 3.85806 2.9115 2.96903 1.99234 5.62386 2.57197 4.01364 3.7322 0.961551 3.33958 8.42011 4.15261 0.735461 1.3124 4.13157 3.44541 5.67644 2.96071 5.26446 1.497 2.57197 0.347618 3.49247 0.231059 6.62189 3.31791 2.94545 4.92723 4.32093 0.898547 3.54786 2.47765 0.387254 3.32515 4.65874 0.700676 6.63207 1.27179 0.924725 4.29809 0.902172 5.43296 1.74132 5.93786 1.94082 5.66721 2.30827 0.668665 8.99513 2.25531 1.79984 0.98173 8.97033 3.13176 1.44815 4.65784 1.44876 0.800722 2.67663 5.67049 3.83806 6.58943 2.59545 3.59133 1.99658 0.703982 0.554722 8.0292 3.07667 0.298698 4.1178 3.44583 2.29575 7.13311 4.60573 3.59651 0.419251 2.74669 0.532011 4.57197 3.88629 2.16686 7.07518 3.59133 2.42116 1.63568 4.69911 5.08246 2.42116 2.59545 4.55395 1.23582 2.48144 7.64516 2.2485 6.5612 2.64136 0.864076 2.63033 4.10971 1.14197 3.54987 1.53914 2.95651 2.22995 3.17134 5.10478 4.04852 6.2733 5.91695 1.33385 2.89203 0.7623 4.98533 0.825411 1.38406 2.5122 9.36129 0.782452 4.65837 2.39529 1.6989 4.83181 3.7823 0.998668 7.07518 2.88245 2.37504 8.61185 0.864684 8.77155 0.22062 3.47646 7.13265 1.19631 7.78156 0.907867 2.12103 5.5282 1.03933 0.755477 2.88245 2.16686 3.08941 4.66274 5.0473 3.02171 2.96903 1.64087 0.185693 3.41257 5.18145 4.55724 0.459425 4.41905 2.20301 6.68321 3.502 2.17067 8.44571 1.35714 11.2463 1.93161 5.39306 0.445482 0.497891 2.2484 1.12456 2.38732 2.13273 0.299448 1.17942 0.912183 11.2463 2.07276 0.20281 12.033 3.19153 0.763338 5.71095 1.97395 6.01927 2.70326 4.66274 1.42442 3.04228 7.75117 1.28735 8.44571 0.693413 6.24239 6.23003 3.69823 3.04126 1.04168 1.83329 4.6046 4.64366 0.87021 9.43513 0.959117 0.557067 1.53914 7.64919 0.826726 2.26981 6.44719 2.12644 1.939 4.76018 0.989147 6.82519 3.07667 0.970565 0.588619 8.43727 1.91581 3.502 0.912183 1.9434 2.12644 0.240778 10.5005 9.4521 4.92723 0.118467 6.96956 2.67994 2.93095 5.28317 1.48554 5.65085 8.55393 7.4235 1.53037 4.76018 0.711979 7.55792 2.81072 1.5175 3.69818 6.02499 5.33781 3.51458 3.26422 1.04388 2.66928 1.00839 1.77831 0.88957 7.83879 2.45382 2.15103 4.53405 3.74628 0.842139 1.32233 5.8776 2.37729 4.09483 6.37006 2.98538 5.84319 3.49247 0.660845 2.06518 8.76942 5.00429 8.26461 7.13296 0.493816 2.26652 2.9844 2.42548 2.89054 0.963871 6.42979 7.05154 0.876328 1.01454 3.53908 5.78191 0.314325 1.2816 1.5114 3.75672 0.971303 1.97638 8.77155 1.61576 4.68672 1.97422 1.6897 8.29637 4.38865 2.47765 0.370837 3.33687 1.8414 1.80407 6.3138 2.91573 1.31535 7.38523 0.745874 4.62134 1.49623 1.03735 1.74908 10.6962 0.75573 6.76666 4.1891 1.30472 2.7236 6.07046 3.06991 0.545393 1.04388 8.0481 2.42475 7.9975 1.00871 1.90537 1.55665 6.02499 1.63568 7.64516 0.175548 1.07625 1.34476 2.18364 2.29575 1.33512 1.93365 0.761805 4.23531 4.47352 1.52248 8.53604 1.44876 0.947266 7.83584 1.02821 3.98442 7.57455 2.95583 9.55066 1.68238 2.70758 9.77112 5.20723 3.31791 2.03409 6.76666 2.56652 1.29362 3.60282 1.41874 3.2198 3.69932 6.5612 0.140969 9.85869 1.08208 4.00781 7.11599 1.77922 3.60551 5.54974 1.47621 0.489704 3.36745 1.67086 1.14213 1.44825 3.60165 2.3501 0.7623 1.21779 1.7632 6.58685 0.167576 8.43727 1.80369 3.41257 6.33408 2.10478 1.17339 3.44289 3.80851 0.515579 0.659601 2.67147 6.81646 2.44831 1.48673 3.39775 2.06793 3.49021 5.78013 1.2742 4.13166 4.35879 6.24372 1.85875 6.70676 1.70648 5.66721 1.71827 3.22433 1.2857 0.299448 7.7119 1.5682 3.14478 3.00867 1.94788 4.32976 1.48895 4.73607 1.5726 5.05092 1.27193 0.174928 8.57657 0.562842 1.17339 1.75852 0.882728 0.137437 7.29181 2.56652 0.75573 2.37889 1.41774 3.66704 1.55978 7.84153 2.32759 3.66704 2.57144 3.03803 8.00113 0.446966 10.436 1.77831 1.23876 4.11631 5.60219 1.47654 3.33687 9.1729 0.571682 1.36987 5.78487 3.41852 9.76481 2.77629 0.459425 6.46728 0.783263 0.402827 7.75117 2.36535 6.66897 0.864076 1.25506 0.963871 0.746505 11.1111 0.126552 1.49623 5.85591 1.37307 2.11219 0.529768 0.284339 1.68665 8.00113 0.643823 5.48921 2.41702 2.37156 0.231536 2.98538 0.807727 5.86118 1.07625 10.4702 2.02513 5.67049 5.21293 0.827313 2.8092 1.70942 0.402463 3.79823 7.77203 0.420307 2.81072 5.56882 0.60003 5.47933 0.660362 6.73519 6.63207 5.05092 5.14661 1.59016 5.37766 0.836627 1.57051 1.50536 9.91074 0.784819 1.31848 1.3497 4.85634 5.6623 3.62227 8.53604 0.706815 9.76481 0.420071 6.24239 4.28264 4.84409 0.969717 1.13465 1.56694 9.11515 0.713059 0.49168 4.06215 4.92047 0.523671 8.64144 1.4091 1.93161 6.38233 3.44973 1.4091 4.97769 0.902172 0.651273 3.99404 5.39306 4.29225 0.476955 1.71404 4.58204 0.542945 0.0334731 0.20281 6.75466 2.42273 2.41688 2.28943 0.528386 9.04217 3.84052 1.06958 5.78191 1.47393 3.49021 4.10973 0.545548 0.907867 1.20424 5.60101 1.25575 2.12475 1.8126 0.450312 0.635386 10.0593 4.11371 7.05154 1.06958 7.78156 0.800722 7.57455 0.713641 3.91596 1.54316 4.93206 0.565572 5.51732 2.062 3.95374 6.1595 2.06426 5.44314 5.01206 2.02376 0.686838 0.638456 2.94699 0.966018 1.32756 5.83101 0.199648 8.92875 4.15361 0.718073 5.51732 1.90716 6.64184 3.08752 6.44152 2.14545 1.41951 3.25152 1.76595 0.863589 8.19669 2.59717 7.13503 2.45382 3.61079 6.55786 5.91695 0.677984 0.84219 2.84851 6.60844 0.124982 3.24718 0.446966 3.46124 1.31071 7.13503 4.33283 5.90294 5.85591 4.62134 9.23654 4.90545 0.238377 2.08756 0.922231 7.82388 5.8182 0.638456 9.89244 0.120578 2.95651 0.557067 3.60015 5.17761 1.31714 1.82644 6.71319 0.462172 1.77823 6.44152 1.48673 3.19474 5.05486 1.97422 1.98262 0.87021 6.97528 1.76595 1.31071 3.83479 4.10971 7.34779 0.807727 8.76942 4.34129 0.967931 2.06525 4.83981 0.229915 0.140969 3.39429 6.15956 1.22014 0.130938 9.9152 1.17633 10.1177 0.681921 3.989 4.19016 0.22062 1.97638 0.422668 3.8244 3.71539 0.158473 1.4222 1.00546 0.753082 6.89338 2.55404 7.86132 0.694452 2.35543 6.60343 2.20339 6.64159 3.4453 4.2485 2.85606 0.587053 7.52071 5.05156 0.303687 4.34326 3.8287 4.06578 6.01927 0.259478 1.50868 2.93662 1.31848 0.801877 5.15173 3.60015 0.959117 3.71633 1.61576 1.20021 2.00746 5.46316 3.67566 1.08116 1.61137 5.71705 1.97664 8.23852 0.158473 3.38321 2.08795 3.19129 0.880134 0.350716 4.85269 6.83856 1.68095 10.2763 1.37307 9.23654 0.745874 0.637201 0.489704 0.734114 0.825484 9.05276 4.40995 1.59406 0.583094 0.987337 2.55157 0.5014 7.73868 3.33068 4.91196 5.0836 4.10973 2.06793 0.389995 7.13265 3.00891 4.19163 6.37006 0.784819 6.9633 2.81085 3.68072 3.19153 4.06578 3.44583 5.93743 1.63519 5.04076 1.03101 0.497891 8.18773 3.23991 0.769979 5.488 5.86122 1.29362 7.84153 2.61631 2.20373 1.14213 5.28798 0.350715 2.19782 3.00891 3.47646 4.19016 7.1483 4.73353 5.21293 2.67663 0.565572 7.67643 0.822229 6.68321 0.933253 3.75672 4.27324 0.571682 0.510379 4.05624 9.65832 0.486955 8.97033 2.38071 5.25626 0.648185 3.8468 3.63694 2.28943 3.13503 6.61821 3.23256 4.90455 0.569477 1.89582 0.350716 0.265433 2.95583 0.664987 3.32903 1.00326 0.476955 6.39537 4.13157 1.1019 1.04168 6.29184 5.6712 2.67765 4.70708 3.58959 0.978185 4.58204 3.90404 6.87782 1.48801 0.842139 4.19163 2.19782 0.652647 4.27166 4.43378 6.83856 0.71541 2.08756 0.0819207 5.43296 4.97769 8.64144 2.36911 7.65002 1.67086 2.88829 0.769979 1.26491 3.54215 5.1454 1.37787 2.63067 3.55877 0.677984 6.2733 2.14549 4.39832 6.38233 1.17942 1.94788 0.715866 3.52969 6.46389 2.18846 5.33089 7.16839 2.30144 5.65085 2.80782 2.67147 4.11656 2.81176 6.892 4.88853 3.09568 1.68238 1.42442 3.08941 3.88629 0.802989 1.65272 4.65837 3.85167 0.716164 3.77134 3.84309 4.088 0.720872 7.9975 1.1511 2.89203 4.35929 5.08799 6.71769 0.746505 3.44541 5.6712 0.712049 1.71073 3.60282 2.2485 1.33123 1.08967 5.488 2.88829 3.36745 0.637201 7.38523 5.47933 0.700676 0.0819207 0.523671 1.59484 1.68985 5.9712 0.65459 4.38658 0.347618 8.42011 2.71688 1.08153 4.47352 3.77961 0.660845 3.39281 8.05326 1.19402 2.35543 6.31506 0.825484 1.41379 5.8092 1.07136 2.60538 0.651273 4.29809 0.541469 0.529768 0.537897 6.0513 2.55404 1.18767 2.83595 0.464867 9.85406 7.82388 7.0365 1.33003 3.85611 1.32534 2.30642 2.57168 1.34476 5.86118 4.83981 7.46474 5.04454 1.19284 1.29052 3.61079 7.83879 4.32149 8.0481 3.26422 5.93428 3.01696 4.90601 2.65852 1.31188 2.23113 0.866764 4.28327 1.99658 5.08246 4.00384 2.12831 1.85875 0.955486 0.425236 3.53849 0.443034 3.95374 0.853205 2.93095 4.5345 1.51065 4.00384 4.69911 1.93365 5.40984 5.93785 2.25712 6.17273 6.99615 1.22043 1.3497 2.93662 7.64933 1.90537 6.04162 3.60551 1.98262 4.68672 3.71633 9.43513 3.01548 2.38071 2.41688 1.87179 7.00851 4.77885 3.8283 2.61134 1.32115 2.22995 0.120578 0.659823 3.8287 4.53138 1.91351 2.62787 2.05827 0.900283 0.259478 1.97395 0.606794 3.01048 3.7297 1.48895 6.89943 2.42273 6.12983 2.9272 3.13503 2.06058 1.87179 3.01548 1.72421 1.655 3.06349 3.8525 5.25626 0.0894899 6.61493 4.90455 1.95156 0.597878 4.88853 2.0743 4.34129 2.06518 3.77961 4.23531 5.77905 0.852858 2.94067 4.42998 1.2816 5.02306 6.34257 0.526002 5.62386 5.83116 0.223951 0.0265197 3.09743 5.94901 3.40597 3.24619 0.834061 3.8244 5.31467 4.12882 3.1152 5.05763 1.14654 6.99006 1.59434 7.16839 0.611745 5.93785 4.40596 2.1177 0.896862 0.118467 2.94545 5.20723 0.350715 2.84391 1.10206 8.26461 0.863589 7.34779 2.63033 6.66897 2.23839 0.534211 6.73506 5.92102 3.84309 2.80992 0.660362 4.38658 5.45199 1.73824 1.08208 1.45569 0.650529 5.62684 1.40749 4.28773 3.40597 1.99684 8.76261 1.00326 6.36237 0.572946 2.14549 3.64562 2.67765 1.71404 5.01283 0.560332 2.71688 3.33958 0.773794 1.42787 7.42855 0.248739 7.44315 4.01364 1.497 4.58804 1.23876 1.00839 0.922231 0.71541 4.85269 1.89582 5.05719 7.0365 3.8468 3.87337 5.33592 3.5264 1.26236 3.90179 0.433361 3.69823 2.81349 0.181211 8.30064 2.01977 2.38732 8.03693 1.03735 0.126552 0.798104 9.65832 4.26426 7.83584 1.71259 6.02641 7.80986 2.10308 2.37889 10.6962 2.49493 6.89338 6.72621 2.84368 7.60499 7.20566 3.47723 1.0965 0.0265197 1.06451 2.37188 1.15814 7.27294 0.331945 8.05937 3.03803 9.58863 0.906969 0.703982 0.955486 6.24372 0.708191 0.643823 6.46728 4.55724 0.822229 1.24687 8.24981 5.05719 6.39537 4.29225 0.530059 1.33003 5.78487 4.96178 2.94067 1.35488 1.8414 4.00195 5.42247 5.53201 3.29176 0.583094 0.606794 5.71095 3.66703 3.6382 0.801877 6.51352 2.81349 4.64366 3.68287 1.32756 0.681809 4.81752 0.748104 0.229765 3.66703 0.763338 3.68072 3.3948 5.44314 1.99684 5.31467 0.422668 2.49493 4.97814 1.08283 0.80095 4.84409 3.87945 2.65852 4.15521 4.59263 3.64562 3.52969 4.72929 4.70708 0.686838 2.41275 3.54292 1.11032 3.53072 0.659823 9.89244 0.389315 0.0433588 0.793626 6.73506 1.44997 0.577107 4.55395 6.58943 0.664987 9.77112 3.68472 5.69926 1.99309 2.09948 1.42787 6.43057 0.544156 0.713641 3.98442 0.454771 0.630484 0.681921 1.98091 0.834061 5.71231 5.70081 3.38321 3.71539 0.240537 9.16486 6.27255 5.04454 0.88957 2.95228 4.6121 0.598431 5.48921 0.708191 4.35879 1.91351 3.0888 5.55109 2.23113 0.568285 8.29371 4.40036 6.42979 1.25506 2.64136 3.69932 0.284339 9.85406 3.39361 5.1454 4.04852 1.1511 2.36535 3.04228 3.85167 0.782452 7.05028 0.821538 2.23839 0.73642 6.39056 3.09743 1.0965 1.51648 5.46316 1.15964 0.530059 6.75466 2.07276 1.35714 1.28735 0.851794 0.62692 3.85611 3.19129 6.34907 2.63999 1.14263 5.18199 0.773536 4.75042 0.454771 1.02821 4.26426 1.00503 5.6558 2.15444 0.620477 0.711979 1.55665 7.64933 1.77922 7.65002 1.77649 2.03518 6.98359 2.36717 0.725596 9.21771 0.773794 0.961551 4.51606 4.88157 6.43057 0.707475 9.04217 2.97506 7.58896 1.70942 1.48776 9.21771 1.82665 3.88771 3.79823 1.95756 1.94082 3.05256 4.95275 1.31714 3.08752 1.37253 1.71827 2.57144 1.41774 2.10308 2.71835 5.22031 9.58863 7.51996 0.857498 6.81646 2.80782 1.48554 0.788274 0.181211 0.748104 2.95974 5.10478 3.5578 4.27166 0.238377 3.1538 2.7049 4.11631 4.58804 5.26446 0.370837 3.54786 5.08839 1.24687 0.510379 9.1729 4.98361 0.124982 1.12441 1.5175 0.420307 0.600617 5.93428 3.51458 0.834593 6.64184 0.212049 3.5264 1.69583 1.41874 1.71073 1.15217 3.61387 4.65874 5.62034 2.85606 2.87324 3.3477 6.61299 1.44815 0.874349 2.60626 4.11656 0.659601 0.749446 3.65378 4.1891 2.03409 6.62189 0.62692 9.05854 0.387454 5.5282 3.76697 1.32534 5.9712 5.73373 5.98094 7.36704 2.36911 6.92278 1.95756 0.60003 7.15481 2.15444 3.58122 4.60573 1.87515 1.4222 8.23852 4.72929 0.715866 3.00867 0.594197 8.95743 3.58959 3.42511 7.08085 1.79035 6.9476 2.08795 5.70081 1.39742 1.50918 2.9796 6.34907 2.03754 3.30016 3.1538 4.90545 0.526319 4.91196 0.620477 7.15481 5.56882 7.55792 4.33966 2.95228 4.13166 8.12334 4.34326 1.11216 1.78679 1.0857 3.0888 4.53138 3.70784 5.18145 1.80369 0.588619 3.64248 2.24049 1.17963 0.130938 4.70136 2.1176 0.248739 2.66928 0.545393 6.44426 4.09483 6.45495 2.6538 5.02306 0.314325 0.864684 0.389995 0.797018 2.03518 2.69278 5.1768 5.8092 0.484566 8.12334 1.2742 2.12831 1.51065 0.611745 5.33089 0.84396 0.851794 6.23003 1.13465 3.48777 9.05854 0.681809 0.966018 6.57036 1.92377 1.75852 2.10478 0.857498 7.52925 1.27179 6.73519 5.62684 4.78297 7.96941 2.74814 3.811 1.44997 2.80992 3.77134 2.1324 2.84851 0.894227 5.23054 1.89764 5.83116 1.99234 3.02171 3.70784 4.47365 4.5345 2.67994 2.30144 2.60626 0.498789 6.99006 2.00513 6.07046 0.954261 1.82665 0.725596 2.23574 0.933253 2.20301 7.4565 5.01283 2.38096 1.17633 0.971303 0.844577 6.57036 2.94699 0.549926 1.25712 7.20566 1.2857 6.11278 3.12669 0.735461 3.75211 1.61533 2.27171 5.78013 1.47393 3.53908 4.93896 1.86871 0.549926 8.92875 1.81326 2.14545 1.77823 6.25085 0.902653 2.01133 2.13246 3.24003 2.71658 4.15521 4.90601 4.81752 7.52925 7.51996 2.1176 1.7163 1.15296 4.51606 3.7322 7.44315 3.7297 0.187713 1.6897 5.05486 2.45288 4.73607 0.0433588 9.29533 2.71835 7.80986 1.74908 2.31452 0.389315 3.83806 0.906969 5.22031 9.29533 5.76215 2.26335 1.11032 5.763 2.26652 3.29399 0.523404 10.4702 0.175548 2.48144 8.2271 1.18627 4.41905 2.77629 0.706815 1.52248 1.08153 0.560332 7.4565 1.89764 8.90275 0.882728 1.92377 0.844577 7.60499 0.223951 4.7308 7.83086 3.59651 3.58122 1.97664 1.9434 12.033 0.0334731 1.92175 8.55393 1.939 5.28798 6.58685 1.6268 2.46541 2.84391 1.8689 2.48276 2.61134 5.58583 2.0743 6.892 8.2271 1.23582 0.577107 3.811 6.5886 1.79343 0.739691 1.79035 4.40035 2.23574 2.36717 6.14715 5.84319 0.231536 0.523404 2.57858 5.60219 2.7049 2.96071 1.5726 2.45288 3.19474 2.44831 2.27171 2.34931 5.14661 1.36987 4.27324 1.5114 4.42998 4.96178 2.41275 2.02376 1.98733 2.79914 2.42548 6.091 2.63381 3.44289 0.562842 5.04349 2.63693 5.84504 3.84052 0.707475 2.8092 4.02673 0.32938 6.12983 5.08542 0.894227 2.24049 4.60502 7.29181 3.39775 6.97528 0.826726 3.79077 2.03754 3.33068 0.793626 2.31452 1.30472 3.65378 2.29004 4.088 5.92102 2.35447 5.08799 0.833124 4.28232 8.99513 0.229915 0.025545 3.1152 1.7077 3.42511 1.94044 1.45569 9.85869 0.53558 7.20517 1.59016 2.34931 1.86871 5.99948 2.1324 0.716164 2.42475 3.69818 1.12441 6.60844 0.37795 7.13296 1.10206 2.46541 3.25349 8.05326 3.24003 5.5046 1.06451 3.45363 0.755477 4.1962 4.1178 0.770489 4.50913 0.5014 1.31033 5.93743 2.10595 1.61024 7.52071 0.900283 0.592124 1.15944 9.16486 0.881019 10.2447 3.80851 2.63381 5.47418 1.81326 0.199648 6.00123 1.83329 1.1019 1.3124 3.12669 2.17515 1.41951 0.894354 10.0593 1.48784 1.95774 0.914996 8.19669 0.534211 0.821538 1.67128 8.07566 0.202444 3.39429 7.11599 0.65459 7.36704 0.671299 1.95156 3.23256 0.455427 5.45199 1.18627 6.5886 2.74814 3.46124 1.47654 2.57858 0.949436 3.8331 1.08283 0.445123 0.808482 0.420071 3.41852 2.56047 6.16236 3.88771 0.954261 2.7236 4.32149 0.600617 7.77203 4.90495 6.44426 3.06991 2.00513 1.14654 3.32903 2.09948 4.49426 6.36237 3.54292 6.091 2.9844 5.763 5.83101 3.68287 4.6046 6.00123 6.81674 5.71705 5.74507 1.22097 1.21779 9.36129 0.537888 1.18767 2.20339 6.52209 3.18566 6.16236 3.84037 4.32093 3.61387 7.05028 3.7823 3.03484 2.08778 1.20424 0.894354 3.24619 4.28773 0.838828 2.8581 1.34068 1.39742 5.71231 1.95774 3.74755 6.70676 1.61533 8.77302 7.96941 4.88365 1.79343 3.57523 0.541469 0.924725 2.18364 2.57168 4.18341 1.00546 1.87515 7.13311 3.45363 8.05937 0.998423 0.876328 4.11371 1.19631 0.334075 7.67643 4.93206 1.00645 6.15956 0.202444 0.984131 2.63693 3.34258 5.04076 1.93382 6.87782 0.783263 8.24981 5.08839 0.898547 3.84037 2.56047 4.07002 2.88385 0.838828 1.40749 0.331934 3.8799 3.4453 2.0004 0.996103 2.95767 0.592124 2.05827 0.656575 0.240778 6.44719 0.664336 2.15267 1.65848 5.74507 1.61137 4.12257 6.71319 1.00503 6.02641 4.71188 3.13188 2.24078 2.37504 5.0473 2.70326 0.402827 2.89054 2.79914 2.06413 0.969717 4.59263 2.71658 4.1962 1.03933 0.387454 3.48777 2.37729 0.742123 5.53201 1.99433 2.33302 1.24853 6.45495 0.914996 8.77302 3.75211 4.15261 1.02743 4.33283 2.59717 5.23054 5.08542 0.137437 8.90275 3.53072 2.26335 3.96169 3.06349 4.51532 4.77885 0.996987 2.74669 0.998668 0.499053 6.9633 9.91074 0.265433 10.2763 1.02281 1.8689 2.81176 9.55066 3.23991 5.80672 1.07136 5.1768 4.90599 1.26491 0.648185 3.8525 3.96169 5.76215 1.50502 3.87337 2.15238 6.96956 0.896862 5.00429 0.37795 3.39281 0.734114 1.47621 3.5578 3.17134 1.32115 2.48276 1.02281 1.68095 4.43378 2.95767 7.72733 2.71882 1.19284 6.27255 1.15944 0.852858 8.82861 0.445123 4.97814 2.84368 1.49779 0.967931 1.66897 4.40596 5.40984 1.33512 0.419251 7.83086 1.36753 8.30064 0.788274 5.28317 0.853205 2.062 0.718073 1.35488 6.34257 2.6538 1.24853 6.54176 0.792011 1.80407 3.18566 2.87324 4.2485 3.8799 6.6094 0.949436 2.38096 7.42855 1.98091 10.1177 0.488289 7.73868 4.50913 4.38141 1.19834 5.33592 1.50502 3.29399 0.493816 4.40036 3.2198 1.69583 1.98733 5.01206 3.3948 2.81085 0.499053 8.61185 2.06413 1.7077 4.12882 0.498789 4.40035 7.08085 2.9272 0.32938 1.17215 1.67128 4.00781 1.73824 0.455427 6.61821 1.34788 10.5005 0.656575 2.62787 8.29371 5.77905 0.761805 3.62227 0.808482 8.82861 0.834593 7.97701 3.90179 1.36753 4.15361 2.02513 6.2281 0.425236 4.47365 0.874349 3.13176 0.526319 5.8182 2.30642 3.76697 2.12103 0.545548 5.0836 5.54974 6.04162 1.00871 0.720872 2.29004 0.749446 0.231059 9.4521 2.15238 0.886421 2.1177 1.66897 4.7308 0.880134 0.773536 1.04847 9.11515 0.652647 7.1483 3.989 0.630484 4.75042 2.90411 1.51994 3.24718 4.98361 5.33781 10.436 0.572946 4.49426 1.99309 3.23518 1.59484 3.44973 4.39832 3.67566 1.51648 3.47723 1.25712 0.902653 5.63119 0.996103 2.61018 2.25531 4.28232 3.55899 7.72733 3.54215 4.90599 2.69278 1.77649 1.48776 6.92278 4.33333 3.13188 0.754516 3.3477 0.515579 10.2447 6.31506 0.694452 5.83622 0.537897 2.11219 9.05276 1.17215 4.02673 0.827313 4.73353 0.334075 8.07566 4.38141 0.770489 0.298698 6.82519 1.36937 5.59517 3.79077 7.64919 3.54987 2.95974 3.30016 2.13273 2.01977 4.05624 0.98173 2.32916 7.7119 5.47418 5.84504 0.984131 3.90404 1.51994 2.0254 1.7632 6.52209 6.60343 1.19402 3.25349 1.6268 2.2484 5.86122 1.08967 1.31535 8.41005 0.987337 3.29176 0.742123 5.8776 6.81722 1.02743 5.67644 1.33123 1.14197 3.83479 5.90294 0.402463 7.58896 1.49932 3.53849 6.2281 0.978185 8.95743 2.77563 7.4235 1.92175 0.542945 0.754516 4.71188 1.71259 0.947266 4.65784 6.61299 3.57523 6.14715 6.98359 0.797018 1.41379 1.08116 5.63119 6.25085 0.462172 4.12257 3.14478 5.5558 0.664336 2.26981 1.53037 2.77563 0.594197 1.54316 6.85998 1.7163 4.70136 1.22014 1.00645 2.90411 5.6558 2.24078 4.33333 0.881019 2.0254 1.50868 6.89943 4.32976 7.13309 2.25712 3.13649 5.99948 4.93896 1.01454 0.998423 0.331945 1.8889 0.212049 1.90716 6.1595 0.443034 1.49932 2.97506 0.528386 3.63694 1.26236 0.554722 1.03101 3.34258 5.04349 8.57657 0.716369 6.0513 5.83622 7.86132 3.99404 2.60538 5.80672 8.18773 0.445482 0.331934 8.76261 0.80095 3.8331 6.6094 3.68472 2.70758 3.09568 0.597878 0.671299 5.98094 3.31505 0.025545 9.9152 1.17963 4.90495 5.05763 3.6382 0.229765 2.06426 5.17761 5.15173 6.71769 2.35447 0.668665 0.486955 0.798104 11.1111 3.22433 1.37253 3.25152 2.17515 6.11278 4.78297 0.650529 1.94044 6.9476 0.739691 4.88365 1.15217 0.712049 6.29184 3.04126 0.433361 7.97701 1.12456 8.41005 2.91573 8.03693 4.51532 1.655 0.749813 0.0894899 5.58583 3.8283 1.5682 2.32916 1.79984 2.61018 2.0004 5.5558 1.72421 7.00851 2.06058 0.569477 6.61493 0.749813