<VTKFile type="UnstructuredGrid" version="0.1">
<UnstructuredGrid>
<Piece  NumberOfPoints="    2835" NumberOfCells="    2094">
<Points>
<DataArray type="Float64" NumberOfComponents="3" format="ascii">
-32.6299 -25.4183 0 
4.98666 5.81344 0 
26.5283 -3.25873 0 
0.716242 -33.3297 0 
-14.2073 25.7481 0 
-35.5323 13.9726 0 
2.49323 50.0673 0 
-12.807 56.5803 0 
-27.3952 34.7629 0 
40.5968 -14.3047 0 
-33.6514 7.02354 0 
24.0231 -12.117 0 
-6.81681 21.3777 0 
3.53694 -33.7527 0 
36.46 13.4719 0 
-55.8851 11.1226 0 
-1.79149 -46.3727 0 
43.9686 4.89204 0 
-16.7931 -51.4065 0 
15.9677 -10.8855 0 
28.7187 41.1975 0 
23.2616 27.3009 0 
-27.3235 -22.8464 0 
2.66197 1.17024 0 
-19.7529 38.5444 0 
29.6299 -5.1563 0 
5.78379 -53.7302 0 
-14.9043 -29.21 0 
-29.8684 7.97493 0 
-34.5353 -7.04076 0 
39.2319 34.4218 0 
-46.1573 32.2076 0 
-25.7564 42.8475 0 
-18.0848 33.566 0 
-7.14069 47.4315 0 
-10.1121 46.3977 0 
-8.18232 19.07 0 
-4.89411 27.1195 0 
42.6103 -34.441 0 
-51.9983 8.37852 0 
28.849 38.1553 0 
-11.6596 -43.275 0 
20.7111 -33.3548 0 
-22.8543 36.0049 0 
-50.3551 -0.912096 0 
35.384 -11.4976 0 
-6.79993 -0.843101 0 
-14.7112 18.1004 0 
-32.2512 45.9065 0 
32.439 40.0501 0 
-47.8605 -22.4176 0 
13.508 40.0114 0 
-13.0392 -5.36059 0 
22.5166 -42.5049 0 
-13.5583 -13.4473 0 
-23.3086 3.39062 0 
-4.86946 -27.8723 0 
-40.8897 31.2826 0 
53.8249 -5.73662 0 
9.36885 28.5717 0 
1.53614 -52.9087 0 
-8.66847 -49.7102 0 
27.1424 -26.4782 0 
49.5403 11.4818 0 
-32.5214 17.5077 0 
4.74371 30.3801 0 
48.5381 18.9406 0 
-35.3371 -15.1138 0 
47.0168 -26.1961 0 
6.95261 45.8828 0 
8.22693 -2.44915 0 
-29.3806 -21.6107 0 
38.678 -38.5883 0 
-48.8928 21.8162 0 
53.6441 -8.4029 0 
-25.4852 -10.213 0 
50.3563 -18.2857 0 
53.4838 -2.22442 0 
13.8406 -24.6584 0 
0.254332 41.4852 0 
-4.91553 52.5475 0 
17.626 -20.6558 0 
-6.5462 -5.64072 0 
26.0285 36.7221 0 
29.5034 15.141 0 
45.5831 -5.18738 0 
16.671 50.6954 0 
-0.560622 31.0929 0 
21.0691 43.3368 0 
-22.4158 32.1605 0 
35.8229 36.2303 0 
-16.018 -15.84 0 
13.7462 17.8325 0 
-37.0267 -19.677 0 
-51.8435 -9.72312 0 
20.9104 -38.4525 0 
16.2621 -1.23835 0 
50.976 -13.1457 0 
-17.6371 52.8578 0 
7.04967 -19.9097 0 
-13.7156 -43.6475 0 
-28.2713 12.0348 0 
27.4151 7.63016 0 
-35.7415 3.44943 0 
34.6136 -10.8629 0 
24.8863 47.5427 0 
-34.3209 -2.81217 0 
52.5366 7.58464 0 
-42.2446 17.866 0 
-43.1925 -29.2083 0 
43.165 11.6213 0 
-9.79028 7.14007 0 
-11.51 -52.8008 0 
-50.3215 4.74474 0 
-12.0422 51.2059 0 
42.0141 3.03828 0 
-21.5882 -49.0065 0 
20.9798 -47.3756 0 
27.2565 -30.0094 0 
21.9613 -2.78363 0 
17.4391 45.2419 0 
-14.5083 44.8859 0 
-2.90368 46.3295 0 
22.765 38.847 0 
-17.9624 44.3218 0 
-23.1008 26.4615 0 
5.8277 -47.1362 0 
25.0847 -22.7816 0 
17.4166 31.4453 0 
46.1611 -0.0396334 0 
4.9164 39.9201 0 
-12.3502 -1.73612 0 
-24.7462 -18.9585 0 
-7.28235 -9.60628 0 
37.9112 22.3914 0 
45.2325 -32.2078 0 
18.9608 -2.74197 0 
46.0102 21.9772 0 
41.4946 30.9882 0 
-16.4066 -45.0163 0 
-44.415 -18.8236 0 
12.304 40.9199 0 
6.98775 -53.4001 0 
-2.9706 8.46598 0 
28.2418 25.694 0 
2.06147 17.959 0 
-21.6292 -43.3066 0 
44.0513 25.4931 0 
23.5753 12.3412 0 
7.131 23.6258 0 
-37.4185 13.1227 0 
-36.5955 33.2744 0 
35.3485 18.6 0 
26.3879 -36.6152 0 
0.918689 41.0219 0 
36.978 31.4768 0 
5.37755 11.6943 0 
11.3294 6.89254 0 
38.3268 -30.5103 0 
-2.0412 -40.3913 0 
-46.4123 3.3476 0 
-7.99035 -8.32216 0 
27.4454 33.8722 0 
-25.698 21.1817 0 
-31.1518 -18.0914 0 
-47.8898 15.553 0 
51.921 -20.9623 0 
-41.0043 -21.9078 0 
-27.0746 42.2091 0 
-9.81636 -14.5762 0 
30.7303 12.3325 0 
-6.77634 -54.9766 0 
-20.2991 8.60464 0 
29.2684 8.20288 0 
8.91821 41.7111 0 
53.1977 -8.93793 0 
-7.67778 15.0078 0 
-40.1834 -24.7314 0 
13.6794 16.873 0 
7.976 -4.37686 0 
11.4544 -51.8587 0 
-44.1644 24.9854 0 
-25.9694 12.7333 0 
-2.12462 -28.2226 0 
-24.6849 27.9301 0 
25.9607 -15.3654 0 
28.0522 -22.7899 0 
5.80874 16.5018 0 
-19.7535 27.3747 0 
-15.1006 -7.14426 0 
-41.9286 38.6396 0 
25.0792 43.478 0 
41.5765 -20.9763 0 
-12.0589 -38.9691 0 
31.7499 21.7374 0 
-46.0992 -0.453244 0 
23.9677 19.7608 0 
-10.8568 6.77413 0 
30.1229 -10.8009 0 
53.6015 2.18755 0 
47.0281 16.6153 0 
3.09721 53.0435 0 
-1.22944 -54.7198 0 
-12.4799 26.0593 0 
31.5755 43.526 0 
-14.1415 56.1612 0 
-46.3972 -25.9887 0 
34.8281 -32.8779 0 
-1.19505 -3.34318 0 
40.8716 -27.1793 0 
11.8058 -31.8888 0 
-1.96901 -55.7162 0 
26.5187 19.96 0 
-0.409149 26.489 0 
-16.7735 39.3484 0 
-12.326 -25.5099 0 
33.2306 -18.8773 0 
39.7959 21.1342 0 
9.28561 35.1104 0 
42.0272 -8.52616 0 
-8.91137 11.1618 0 
-14.28 1.96647 0 
20.391 -26.8157 0 
-18.6835 47.6972 0 
7.35869 14.838 0 
-45.2465 -7.88519 0 
-36.3206 -30.7192 0 
-2.46039 28.8517 0 
24.5043 -18.1331 0 
22.1969 -24.0564 0 
-29.835 -13.3732 0 
-44.3675 -30.4628 0 
-35.9385 1.45354 0 
-19.1454 41.5612 0 
1.73052 47.0671 0 
-51.3206 -14.3982 0 
-26.7295 -5.86601 0 
28.2986 -46.0997 0 
-13.6511 6.16618 0 
10.8188 47.1534 0 
16.2104 -30.7622 0 
-4.7059 -35.6045 0 
-16.5386 28.6029 0 
-21.5832 -0.979651 0 
12.11 -6.39339 0 
2.85026 46.5972 0 
1.63697 7.97109 0 
-2.28793 -11.8445 0 
-39.9868 24.8376 0 
39.2176 3.2006 0 
-36.5732 -39.1319 0 
43.0288 -33.0348 0 
-21.1162 44.993 0 
44.0281 9.52667 0 
3.72964 -11.0042 0 
21.2406 -20.8177 0 
31.476 -43.4444 0 
5.84603 -17.8272 0 
15.0518 -1.95015 0 
-31.6606 -38.4165 0 
-37.6447 34.0406 0 
19.0778 -40.333 0 
-14.6259 8.74202 0 
23.6489 -18.6676 0 
7.49908 -38.5609 0 
49.4135 -23.1594 0 
-40.7194 4.67032 0 
0.761708 23.4997 0 
-29.2473 38.25 0 
28.4738 18.0136 0 
50.9275 -22.686 0 
18.1185 25.6968 0 
-19.3161 50.5341 0 
-34.3801 -24.1142 0 
6.08483 36.2512 0 
11.1903 -37.4741 0 
-9.71893 39.976 0 
-13.6154 10.8393 0 
28.4565 45.8832 0 
-46.6656 12.4699 0 
44.232 -5.84489 0 
8.88322 50.9228 0 
-38.4652 -19.2295 0 
20.5882 17.774 0 
14.8699 -41.3521 0 
51.18 0.12605 0 
49.7641 -4.16561 0 
13.8361 -34.7513 0 
-52.4685 -6.83428 0 
21.7622 3.19761 0 
47.167 -19.1958 0 
-41.2105 -1.84315 0 
-1.95941 9.09345 0 
-28.9336 -13.3856 0 
35.7457 11.3624 0 
22.8017 -4.88566 0 
17.4711 38.6251 0 
-1.88354 14.3118 0 
-32.0684 -10.0359 0 
-2.57975 -15.5482 0 
35.062 -1.64687 0 
46.8451 -11.384 0 
29.6604 -6.70936 0 
-3.09615 24.211 0 
2.27738 22.6695 0 
-37.1074 28.9396 0 
-50.7741 16.8703 0 
-32.7259 25.4669 0 
18.3989 11.6635 0 
11.4369 13.5077 0 
-44.5267 10.0199 0 
42.9289 16.3174 0 
-37.3224 -32.2013 0 
39.6995 40.8354 0 
-38.9022 7.0466 0 
38.7357 -6.56537 0 
4.88973 -40.859 0 
-11.0309 33.7777 0 
-42.088 -10.1547 0 
31.1322 -28.2759 0 
-31.2927 -33.359 0 
-8.17807 41.0585 0 
-36.0131 21.6075 0 
-45.0507 13.7217 0 
35.9513 33.791 0 
44.8388 -28.8362 0 
-54.1657 15.567 0 
-29.3191 -30.4941 0 
39.2748 -19.9556 0 
-29.6586 42.4007 0 
8.81951 -5.11014 0 
-37.9525 -27.4923 0 
11.5825 -48.4283 0 
31.2595 4.22136 0 
-46.6332 26.6282 0 
-13.2595 45.7254 0 
33.8539 -30.4169 0 
-23.2924 14.3976 0 
43.3316 27.5443 0 
17.8985 -28.4942 0 
18.1592 -46.1291 0 
-30.9347 30.7291 0 
11.2734 -19.6676 0 
-50.5629 13.9517 0 
-25.7182 -24.8348 0 
-9.0145 27.3834 0 
-30.6956 46.576 0 
-27.0459 -3.23282 0 
-5.80407 2.82121 0 
-9.51506 -24.8827 0 
49.5296 7.82297 0 
-6.62071 -16.8812 0 
41.4279 -22.7792 0 
-24.8387 -31.4832 0 
-30.7222 24.0093 0 
-10.3878 17.2531 0 
-20.6802 11.3966 0 
36.1338 25.5769 0 
-3.42766 53.3812 0 
-18.0363 21.6412 0 
12.549 -42.6856 0 
-43.5626 27.9056 0 
-49.6938 -6.54724 0 
-27.9923 26.3711 0 
-18.3244 -21.3392 0 
37.5699 43.1415 0 
-9.04765 56.1358 0 
22.1813 13.6079 0 
24.7086 8.82279 0 
-0.0992711 -0.636741 0 
44.0521 -17.8529 0 
-9.39287 -23.7819 0 
-29.7213 -0.24139 0 
10.2348 26.0715 0 
1.77315 -9.24254 0 
-14.2919 -46.5471 0 
15.6963 -17.6921 0 
0.182699 -17.1494 0 
-6.07893 5.18503 0 
-19.4022 -35.5578 0 
-29.0079 3.92978 0 
-42.2219 -33.4896 0 
46.8373 -7.56713 0 
32.0721 -36.7756 0 
22.641 47.9727 0 
-4.88696 -44.9771 0 
29.9278 30.9067 0 
-20.6198 -39.1932 0 
-4.33374 15.9798 0 
19.2647 34.9944 0 
14.7666 -47.1026 0 
-4.3855 -55.4711 0 
9.00588 -31.4511 0 
49.8356 3.831 0 
34.4792 -22.8662 0 
-18.1449 0.743421 0 
-23.2432 -11.6157 0 
34.4854 28.786 0 
-39.9587 -6.89522 0 
-2.22008 35.4298 0 
35.6519 -40.8583 0 
-41.0851 23.5427 0 
21.197 -9.48838 0 
-51.8056 6.68373 0 
-49.9032 -18.471 0 
-22.9874 0.0530939 0 
-8.13402 -33.3746 0 
4.5161 52.3479 0 
19.6933 -50.0528 0 
5.34918 10.9311 0 
3.5331 30.3461 0 
-38.6547 17.2833 0 
13.4872 8.94468 0 
-39.7659 -32.4758 0 
-16.6238 -23.8426 0 
-4.88445 -50.163 0 
-39.4806 -35.9991 0 
-47.9704 6.95254 0 
29.3681 -43.1149 0 
17.0891 -15.0963 0 
14.9478 23.958 0 
31.3087 22.719 0 
-19.5111 -15.9676 0 
-7.57122 51.5532 0 
-44.2143 36.8558 0 
-26.1124 46.8964 0 
-32.3895 29.3204 0 
12.1073 31.9988 0 
-17.6385 14.6437 0 
3.8117 7.69299 0 
8.47132 -13.8368 0 
24.0526 -32.7789 0 
-20.8525 7.31069 0 
25.8144 25.2253 0 
-9.66776 -1.18292 0 
27.2629 -40.799 0 
-19.8338 -18.6738 0 
31.4 -29.2301 0 
-10.0729 15.1916 0 
-8.00767 35.9559 0 
-13.7749 32.602 0 
35.2857 -14.0286 0 
12.6289 -24.8726 0 
-1.54923 -50.0228 0 
-35.6165 38.2046 0 
1.05662 -48.0164 0 
-46.0319 -13.743 0 
-44.9417 36.0606 0 
-36.4537 -9.906 0 
1.22673 -41.0907 0 
-5.21783 -38.3263 0 
2.14528 -55.1488 0 
40.2858 -32.5196 0 
-46.5657 -9.90661 0 
-5.94435 -21.5866 0 
8.40397 -43.6796 0 
53.7195 -14.8175 0 
-38.24 11.2843 0 
-4.3193 42.3041 0 
9.35797 4.45932 0 
-21.5602 18.3082 0 
-25.8269 -45.7832 0 
17.2358 19.6796 0 
23.3885 34.0408 0 
4.44337 37.3676 0 
5.34599 -11.5652 0 
-16.5696 22.2255 0 
28.6777 -39.0106 0 
8.05585 -27.5355 0 
17.2358 -33.0477 0 
-24.059 -26.9992 0 
3.16771 -24.1876 0 
-18.5381 -27.256 0 
-15.2504 40.2931 0 
35.0009 -39.8191 0 
-52.6608 -0.377869 0 
0.533367 -9.91922 0 
17.666 -12.1258 0 
-1.27294 32.1802 0 
8.63254 -48.1077 0 
51.5586 10.0054 0 
-15.5483 -36.567 0 
-16.4354 50.3064 0 
-4.85621 -2.95913 0 
14.0618 45.9151 0 
-38.4968 39.9866 0 
-44.1257 6.20116 0 
14.0822 51.9412 0 
2.34058 -6.54508 0 
7.89342 53.1988 0 
9.91974 0.67813 0 
-45.5177 -1.90762 0 
-2.3015 15.6368 0 
15.811 8.0811 0 
22.8871 -36.8066 0 
[...]
<CellData Scalars="wall variable 0">
<DataArray type="Float64" Name="wall length" format="ascii">
2.56932 1.84044 2.77625 2.5222 5.94978 0.932895 2.52234 0.806134 3.12714 4.80808 2.35526 7.44091 3.73801 3.17266 5.907 2.17641 0.884899 3.73996 3.55821 3.29384 3.44443 1.04144 4.8891 1.45968 3.58313 1.42719 1.95194 3.59981 4.11588 0.795008 4.3824 4.70504 4.11588 3.26251 2.85927 1.72935 1.47504 4.16405 3.82472 2.33959 0.574917 1.12228 2.9203 3.01379 3.00873 1.28429 2.97218 4.08155 4.55139 4.21492 5.73186 3.29152 3.65653 3.65796 1.7954 6.89025 1.47124 0.717623 4.65801 4.16734 0.561446 6.43742 4.63851 7.22577 2.92706 4.13457 4.10237 4.52139 0.705229 2.65894 3.02231 4.59813 0.797629 4.8837 2.05562 4.13129 1.94101 2.99349 1.20663 2.32882 4.07017 3.14311 2.83946 7.97163 4.32197 1.9682 3.0722 3.17266 2.2172 2.263 3.73581 6.37684 3.5173 0.798771 4.20598 3.88708 2.47321 2.36913 3.46336 6.41043 3.495 3.0408 3.24063 2.37133 1.35456 3.01827 3.56942 3.76449 4.35547 2.83831 1.42589 5.47329 1.53463 2.95711 2.82457 3.95772 3.50786 1.74433 8.11492 3.64129 4.33065 3.61105 6.60122 1.82078 1.67884 3.40293 4.28833 4.27517 4.8891 4.48918 3.57637 4.24004 2.07988 1.49995 2.4845 6.45585 1.16438 9.84633 1.53269 1.68222 10.8386 4.34573 2.57949 2.61426 3.48 0.38688 5.316 1.27653 0.392485 4.07033 3.1274 3.99533 8.37876 1.98723 5.29448 3.89741 2.37814 5.03282 4.54889 4.14904 3.0408 3.04446 3.16207 3.14776 5.48794 6.48882 2.19456 3.39556 3.10279 0.932895 3.27141 2.27553 2.73152 0.768422 0.293424 4.80808 2.9873 6.47057 3.67485 3.91246 3.00698 7.18522 3.34269 1.95923 3.43918 4.17824 1.21107 7.18522 4.61872 3.28165 1.88687 3.1622 0.672094 1.62967 3.10923 3.07628 0.516654 4.63851 4.21781 2.22226 4.62132 5.29419 2.0364 2.97991 0.351937 3.00531 2.53399 1.74286 7.08386 2.77243 4.0036 3.48477 2.15894 3.29381 2.81859 4.67651 4.30653 0.533422 5.17359 0.143304 1.28894 4.17519 1.95166 5.09467 0.112111 2.0642 4.20598 5.68944 6.52578 1.0437 6.94735 2.78863 3.76478 3.88467 6.45585 3.8243 3.81718 3.23013 3.50786 0.831694 0.743132 6.84199 0.7886 1.49898 2.44003 0.354625 3.19408 3.65796 3.27391 4.21781 4.13457 4.41787 3.32207 3.33509 8.58787 2.80267 2.78039 5.66214 3.69061 1.94195 0.768422 4.54866 3.6188 2.40178 0.399289 6.69513 0.53944 2.29152 4.08109 1.90606 2.34695 7.6312 3.43918 3.3927 2.62674 3.64129 0.610487 5.48794 3.69318 3.57637 0.831694 3.95772 5.48441 1.95923 3.46392 2.21347 2.12011 4.38016 3.91787 1.89764 3.39542 3.5532 4.5909 2.13596 3.08602 5.65215 3.25492 3.91976 1.14147 3.15546 4.13129 3.4743 0.893763 8.94894 1.71155 5.92261 0.705229 3.86742 1.48643 4.56146 5.32471 4.17519 5.01779 2.10965 2.4591 2.48772 4.14279 2.36913 2.34528 1.627 5.29183 1.80804 1.29867 1.59646 4.97582 2.967 1.73707 3.99533 4.83818 3.52191 3.33755 3.43918 3.39556 1.83461 3.98597 2.69637 6.81796 3.1622 1.88365 4.08853 0.35907 5.61022 2.44903 3.05614 3.93981 0.70878 4.67405 1.66605 4.65937 6.39958 3.09813 1.66605 0.964263 1.23435 1.85268 4.62511 2.5905 2.65642 4.62511 3.26223 2.77625 8.06385 2.79629 1.19773 4.14114 3.26112 3.52191 2.92347 4.94416 1.62967 7.63409 3.29765 2.63822 2.73236 4.9495 3.10235 3.08602 2.19391 3.72788 3.50774 3.89455 1.6246 4.84373 3.46064 2.2519 4.63303 0.753143 3.16417 3.58239 3.6461 0.701942 6.97294 2.58971 3.1271 3.00367 3.31844 2.4817 3.14311 2.67657 8.55695 1.54048 3.61592 3.38506 0.732234 3.10923 4.9495 2.75531 8.43556 0.836883 2.76966 2.94798 3.37614 2.76441 10.9879 3.26482 3.13268 3.05984 2.30806 6.31529 1.28764 0.84614 2.52583 3.70005 4.76387 1.43098 8.95128 3.46204 3.06585 3.8876 4.81651 2.26448 2.3554 3.2284 3.4226 3.08993 2.77336 2.83095 2.70256 1.51674 4.24147 3.05318 1.80804 1.59443 2.94539 2.92179 2.6214 3.2396 4.86704 1.33411 2.64435 8.55051 1.18462 2.14617 7.75628 1.01108 1.64825 4.36092 4.21802 1.8006 2.94539 1.43156 4.18161 2.02699 7.47325 0.363592 7.64847 0.574917 2.96304 3.05614 3.01059 1.13785 2.85927 1.30528 3.57487 3.64614 8.73336 0.533422 7.41988 0.354625 5.07603 2.61816 2.64012 6.64412 2.89255 2.7714 1.20514 6.17068 3.71752 2.17917 4.63303 0.599682 1.73637 4.5995 0.94067 1.19655 7.93738 3.95913 2.34879 1.14392 5.09516 4.00198 4.25049 4.1381 3.14582 5.33993 0.94067 3.99379 8.55051 2.64659 3.68873 4.08061 3.64645 2.3072 4.70659 3.02614 5.01694 3.73581 4.58505 1.47289 4.65937 3.09813 3.26187 3.98597 2.8844 4.58505 1.88365 1.88687 7.53928 3.1271 3.495 0.393283 3.94338 5.29448 4.82277 1.83633 1.10755 7.19586 1.90552 2.57908 6.26405 4.19193 3.49145 1.53064 6.01434 2.4591 4.84202 4.90002 2.3554 8.4584 3.56422 2.85006 1.04901 3.5687 3.61794 3.91246 3.98082 2.83831 7.75628 2.30209 1.36764 3.44256 3.58777 2.6245 2.57966 2.92179 1.8006 3.47024 3.26527 0.363592 2.34622 2.56932 6.32815 7.92639 2.22997 2.92347 4.83818 2.99951 2.86483 4.92305 1.41996 5.62035 3.43608 5.316 3.86982 2.4326 1.53463 2.93425 5.94137 5.907 3.0722 2.34528 2.47321 1.83633 2.12732 3.00034 2.35608 4.14114 4.94506 4.11814 2.15894 5.15256 1.33315 1.455 2.14512 0.888873 0.404938 3.64614 2.6708 6.03929 0.377589 2.92595 2.5938 1.7908 3.22492 3.22488 2.77336 2.97218 4.97413 3.00698 3.61794 4.18829 2.83568 3.3927 3.33755 3.26112 1.33315 3.96766 2.87233 3.31661 3.16207 3.38269 1.53269 0.391211 4.96215 3.13411 7.9059 3.01059 2.44903 2.45505 1.43025 1.74286 2.64659 2.64435 4.03294 4.01098 3.6589 3.30862 3.42815 4.4608 3.14776 3.31661 1.18462 3.99379 0.559473 2.93425 1.9682 2.90083 1.94195 4.18484 1.7908 2.7026 2.2944 4.56077 4.35881 3.00583 2.60658 2.59452 2.98249 4.70659 3.64915 0.392485 3.49412 3.75149 3.71042 2.12732 4.82277 1.98723 2.36351 2.56862 0.996956 0.325112 2.59679 2.78863 1.76857 1.93639 3.08987 5.61301 4.21802 0.637007 5.68944 0.798771 4.38817 3.33569 2.04597 3.65653 3.62076 3.44256 2.95374 6.83793 1.75876 0.743132 3.13554 3.13411 2.53399 4.27802 3.29381 1.48629 3.20283 3.06711 2.86578 6.33712 1.29867 3.1274 1.20663 2.94865 3.25274 2.74332 2.48772 6.01434 2.30001 2.86507 7.06561 1.62334 3.29381 4.11814 9.84633 2.41601 3.68873 3.6589 3.54355 0.391211 2.24573 2.23571 3.96766 5.15256 3.48477 0.720778 2.79259 0.990817 4.52058 4.1138 2.79259 8.07669 1.55522 9.8961 0.247639 0.70118 4.28833 1.72997 4.60323 3.22043 4.65801 3.42544 5.77082 3.31801 4.75034 3.53914 3.71938 0.456706 3.18543 2.7714 3.17323 0.35907 3.84659 1.04983 2.75444 2.71807 5.36877 6.24022 3.75149 3.70319 3.92309 3.69555 3.46392 5.33521 6.38965 3.28476 2.92595 3.08993 1.28771 5.49204 0.644701 4.22893 4.54889 4.4608 1.52554 1.74516 5.64946 5.68445 4.24274 2.87233 2.23571 5.51281 3.56513 7.9059 3.13554 3.53778 2.6214 2.57966 1.13785 3.65405 3.25274 4.79455 5.05955 2.0364 1.34558 5.29416 3.13949 5.09516 4.03877 4.04158 3.41936 6.47057 0.0778082 4.7324 4.43035 2.37133 4.09867 4.08623 3.46204 4.91613 1.33315 0.990817 3.35724 4.40413 0.640855 7.52278 1.1458 5.57349 5.87927 0.75232 1.90606 3.23219 0.5362 7.48628 0.882957 2.30209 2.14617 2.04597 4.60108 0.996956 7.71347 2.53684 3.31844 2.0226 3.70319 0.487128 6.54448 1.1458 2.0804 4.38817 3.5173 4.65788 3.646 3.40606 3.26549 3.43131 3.47705 2.02649 4.35547 4.99747 1.04983 4.00514 2.85006 9.90856 1.52554 3.42815 2.95613 4.03294 1.33411 3.1113 3.55821 0.474586 2.76441 3.18101 5.19516 0.293806 2.28069 3.58839 0.399289 3.22779 3.34871 1.72997 3.40293 2.25244 3.12273 1.14147 3.91935 0.878271 2.81649 0.806134 2.25249 2.80822 4.32462 2.59115 1.4651 2.15719 3.13725 0.351078 4.56146 2.83244 2.69603 3.01889 5.50771 0.565128 4.75034 4.33691 5.98103 3.14176 2.59112 1.70328 3.76478 2.59679 2.09484 2.74295 2.83946 2.4817 2.53684 2.43091 3.16417 3.0135 0.43828 4.39184 3.44443 3.82864 1.82078 3.96984 0.43828 1.55511 1.61529 1.71953 3.42544 0.717623 5.06879 3.91752 2.02198 3.20485 1.45968 4.27517 0.70118 7.00895 2.47754 2.2172 3.73801 0.293806 2.67493 2.47865 4.91613 3.4226 3.06297 2.34695 0.75232 3.21543 4.8078 3.6188 1.47849 6.89119 2.61816 2.40622 3.114 1.96847 1.4651 3.56885 2.92594 0.631008 3.61105 0.173706 5.82815 2.32882 2.30001 1.53064 6.88463 0.964263 4.67405 0.5211 2.319 5.6791 4.89261 1.61458 2.07988 2.92935 5.24854 2.5938 3.28476 3.17477 2.61426 0.496021 8.5346 0.456706 6.31767 1.13814 1.6246 2.17917 2.14512 4.96029 1.60058 3.56942 2.05923 1.43098 5.20485 2.25897 2.5222 3.26223 1.85268 8.18906 0.894995 4.73845 3.48 3.17477 5.49204 2.81859 1.62334 4.25979 3.82363 4.61021 1.79979 1.455 6.09912 0.491179 5.06073 4.96029 3.62441 4.99952 3.07182 3.67124 6.26405 0.970872 3.40606 2.81453 6.64412 0.917291 2.21347 3.69555 0.62749 3.68188 3.56885 2.59115 1.79399 6.00288 2.15049 4.30913 1.42589 3.98082 3.67485 3.41936 2.57382 5.64008 3.93981 2.96304 2.33959 3.68795 3.4743 2.05562 2.00216 2.77243 2.7668 2.70256 3.36569 5.65215 3.10235 3.86252 2.58947 0.287626 2.76684 2.99951 1.83461 2.19456 2.05635 1.42719 4.70484 3.53778 3.20283 3.46052 3.46336 4.14279 3.05318 6.61482 7.03229 1.65692 3.46788 5.01694 2.87326 8.58787 2.90083 4.32197 1.79399 2.69603 3.9623 1.16189 2.37814 0.465682 6.96478 2.98249 3.21105 3.69102 3.64656 2.80267 2.87326 3.02614 2.3072 4.94145 0.330387 2.95625 3.06711 4.07033 3.64915 0.652752 7.35852 0.599682 2.2519 3.5059 3.81718 8.38988 0.888873 5.20485 4.76387 2.96694 2.51177 3.07628 0.732234 3.87096 4.40413 1.32774 3.33704 4.43035 4.8078 2.43012 0.84614 7.56356 1.35456 8.06385 1.84044 2.34622 1.40466 1.65692 2.41295 1.95194 2.74249 1.01108 2.6245 4.02914 2.46202 0.959455 3.07994 6.28568 5.55056 4.09867 3.24063 4.14904 4.22893 3.68795 3.82472 4.18829 3.5687 5.38925 0.70878 1.01767 3.92309 2.0226 3.00367 7.53928 3.28165 3.36569 2.83095 3.22488 5.74652 0.156319 0.893763 1.04901 4.00514 3.84659 4.08853 5.38925 4.38016 3.37613 3.12619 3.14582 1.99212 5.24851 0.589933 2.95625 6.12305 3.114 0.289406 2.60584 2.86578 0.531995 1.99212 4.1381 1.43947 3.08987 2.02068 6.93927 3.65938 2.9203 5.63406 4.32433 3.92688 3.16061 7.63409 2.22226 3.27391 3.67859 3.54895 4.24004 3.69318 3.34269 0.672094 6.81796 0.257746 2.319 2.47865 3.03318 3.34871 1.61879 7.03343 7.49503 3.52075 2.74889 4.08155 0.593581 2.7026 1.77568 4.02476 0.426886 2.75531 2.73236 2.25844 4.18239 5.55056 0.644701 2.26028 2.98801 3.06585 4.08623 2.79533 6.11841 1.49995 1.61458 2.54564 3.14732 2.79629 2.74249 4.70504 0.530165 3.14732 4.81019 2.30806 0.769396 7.14477 3.01379 3.65938 2.31697 3.71938 2.81116 0.769396 3.05984 3.21517 6.31767 1.02879 3.62559 0.615008 4.57493 2.59986 2.86483 2.76684 2.2663 1.95166 5.32471 2.74332 3.65405 4.18468 3.13725 4.6525 3.59153 0.343707 7.5598 1.55511 3.96984 6.60122 0.631008 8.81175 1.13733 2.36351 5.03282 1.16189 1.64606 6.21126 3.70625 1.54048 2.36479 3.00583 0.510027 5.54323 0.7886 2.07584 9.01741 2.0137 0.465682 3.89741 3.94338 3.646 3.58675 4.33691 3.31801 2.89255 2.81453 0.589933 10.2804 0.53944 1.05695 4.84202 3.32078 3.91787 2.67136 2.80822 2.8601 3.19142 3.18101 3.37614 2.0477 2.62547 4.32462 2.67136 2.94798 6.04951 4.04696 2.60658 4.08151 0.540658 7.36049 2.22997 6.27138 5.70359 2.62595 0.695834 2.86507 4.94506 4.94416 2.59452 4.04696 1.26343 4.03479 3.21105 6.61482 3.38823 2.0477 0.708755 2.6708 3.57487 0.734237 4.54211 4.4848 4.92305 2.59986 3.41613 3.58239 2.43091 7.71347 2.56862 1.13733 2.4603 4.02914 3.58777 3.62076 3.29152 0.914557 2.83244 1.48643 2.85535 0.701942 4.93356 1.64606 3.9623 3.91976 1.11139 4.56077 5.35235 4.75992 1.21107 1.70875 3.00034 3.71042 6.24022 1.01767 4.61872 3.71752 5.33993 3.12619 4.37494 4.4306 0.496021 7.97163 2.74295 1.24889 4.79455 2.94865 1.64262 5.36877 1.85621 0.894995 1.28771 4.24147 4.81957 0.143304 2.95353 1.47849 4.54866 2.73152 8.38865 3.04473 3.29765 3.16061 2.80706 5.71184 6.32815 2.52234 3.10279 3.12714 2.81649 0.70261 2.62674 2.83568 4.24274 1.54471 0.173706 4.33065 1.0437 2.50201 1.47504 2.59273 7.00357 3.82123 4.25247 3.26482 2.41862 1.74433 3.23013 3.5059 3.46064 2.09484 6.69233 2.97991 5.05955 1.24889 6.83793 5.04992 0.769467 3.38506 2.42497 2.67657 0.769467 3.26525 4.18239 6.97032 0.497973 4.18161 2.63251 1.49342 3.43918 5.48441 2.82457 1.04487 3.02231 3.29552 4.86853 0.954486 5.9248 3.62929 3.29381 2.1941 0.797629 5.05036 0.561446 1.38048 4.19193 2.10965 3.64373 3.27141 5.94978 2.25897 0.251 4.01993 3.33704 4.28052 4.67651 1.79979 1.19773 4.81019 2.54564 4.89261 2.75264 2.5905 2.05576 8.18482 0.289406 2.40622 5.07603 2.44003 2.58947 2.39596 0.540658 2.91415 2.967 0.318936 5.19382 1.68222 3.38269 3.04446 3.76449 1.60058 5.06073 0.616448 1.57139 3.07994 3.58923 4.18468 1.34558 5.29419 3.9715 4.81957 1.51674 2.7668 7.08386 1.43025 2.63251 1.43156 1.59443 5.29183 6.72741 2.45505 5.61022 3.17323 1.64262 3.9715 3.05313 3.59153 0.396919 5.51281 2.24573 4.1138 1.23623 2.02068 1.93639 4.11039 1.47933 0.6951 5.57349 2.67493 5.19516 3.19142 2.53481 2.42001 2.28069 3.03318 5.17359 2.64012 6.89119 2.95353 1.55522 3.03721 5.74652 3.22492 1.2211 3.95913 2.10498 3.64645 2.263 2.47754 7.03343 1.70961 4.94145 3.53914 0.565128 3.00199 3.00873 7.14477 2.81116 2.59112 2.78615 2.79533 0.530165 4.3824 4.89218 4.01098 2.95613 3.30862 4.96215 3.54355 2.29658 3.07928 6.31529 2.31697 3.92688 0.652752 3.8243 2.4845 6.11841 2.78615 3.14176 0.936734 6.41043 3.46052 1.48629 3.62929 2.00072 2.07584 0.393283 3.47024 7.47325 1.45629 2.29658 4.32433 1.04048 0.917291 6.17068 2.05663 4.37494 3.37613 2.12011 1.61529 8.81175 2.92594 3.68188 3.94144 0.914557 6.89025 4.10164 4.70554 2.46202 4.43358 6.93927 1.23623 3.23219 4.08109 0.466223 4.71578 5.35235 2.2944 0.593581 5.73186 1.63886 6.97294 2.85535 3.86742 4.52139 1.46411 5.06879 1.47124 2.96379 1.94101 3.15546 3.12273 5.24851 0.531995 4.43358 2.29152 10.2804 1.64825 6.28568 1.57139 4.62132 2.0623 0.954486 2.3635 2.26092 5.61301 1.43947 4.25049 4.5995 1.66463 5.09467 2.2663 3.58923 0.959455 4.70554 0.386369 0.0778082 2.9873 4.97413 1.28429 3.00199 5.50771 1.28894 8.38865 2.27553 3.64373 5.01779 2.15719 5.82815 1.54471 3.56513 0.396919 4.6525 1.32849 10.8386 0.616448 0.491179 4.42147 5.36904 0.884899 0.354639 6.97032 2.25844 2.63822 3.04473 1.09376 3.52075 0.62749 6.38965 0.589319 2.93919 5.5347 3.26549 0.351078 7.5598 2.62656 0.487128 6.37684 0.534187 1.71155 0.229163 6.52578 0.637007 4.36092 2.3635 4.86853 7.56356 8.95128 2.05923 3.01827 2.10498 7.93738 2.93472 9.8961 3.91935 8.94894 0.156319 3.03721 4.60323 1.33176 7.00357 0.544229 2.96694 3.70005 2.04945 1.47933 0.534187 3.88708 2.0642 0.229163 3.29552 2.65894 5.92261 4.74621 4.02476 3.27257 7.48628 1.09376 5.71184 1.43311 3.15437 4.55139 2.74889 3.35724 8.07669 0.720778 4.30653 4.28052 1.32774 0.795008 4.16405 2.50201 3.88467 1.70328 4.89218 3.49412 8.37876 1.73707 2.91415 4.08151 1.19558 1.59646 6.33712 2.60584 8.18482 1.49898 5.54323 2.17742 0.318936 4.97582 1.19558 2.05576 3.91752 1.46411 2.25244 4.48918 1.04144 4.39184 2.95374 1.36764 0.882957 3.27257 1.77568 3.26525 5.04992 1.75876 2.42497 3.61592 3.70625 6.84199 2.61227 6.03929 0.708755 6.04951 2.76966 6.00288 6.96478 2.0137 1.07651 2.72739 0.516654 2.51177 4.01993 4.61021 0.326618 7.22577 1.40466 7.92639 0.70261 0.878271 2.62547 3.38823 3.46788 0.293424 6.69513 3.58839 2.42001 2.80212 2.35526 1.85621 2.71807 3.84896 3.86982 0.38688 4.73845 4.4306 2.05663 1.20514 3.18543 8.5346 1.72935 8.73336 0.404938 8.38988 0.544229 2.59273 3.0135 0.753143 1.63886 4.10237 1.51657 0.351937 6.69233 2.95711 2.4326 3.84896 2.75444 4.99747 0.330387 1.70961 1.61879 3.22779 2.40178 1.96847 6.12305 1.26343 7.36049 2.39596 3.86252 3.89455 1.0421 2.94506 10.9879 0.474586 3.73996 5.36904 2.00072 1.38048 4.16734 3.22043 0.448696 1.07651 9.01741 3.58675 4.65788 1.51675 4.7324 0.386369 3.01889 0.5211 6.39958 1.47289 2.8844 2.58971 4.07017 4.16725 1.53401 2.40598 4.03877 1.14392 5.1426 2.1941 4.27802 4.0036 2.00216 4.8837 0.734237 1.30528 3.26251 3.59981 2.41295 7.03229 4.59813 5.9248 2.0623 3.00531 1.51657 1.04487 8.11492 2.41862 1.28764 3.07928 1.45629 2.02699 0.610487 1.67884 3.82864 3.29384 2.05635 6.48882 3.82123 1.33176 4.11039 1.76857 6.94735 1.05695 7.6312 3.06297 3.2284 4.90002 1.02879 4.70484 3.58313 3.20485 5.11584 2.0804 7.52278 1.21308 4.60108 3.33569 0.936734 5.98103 0.325112 2.26092 1.73637 7.35852 3.87096 8.43556 0.426886 4.74621 0.5362 1.21308 0.640855 0.695834 4.07717 3.76417 4.25979 7.06561 2.96379 6.43742 5.05036 2.99349 0.497973 0.354639 7.49503 1.7908 2.36479 8.55695 0.112111 1.66463 4.10164 1.7954 3.19408 7.41988 0.559473 4.08061 2.41601 1.16438 1.32849 2.17641 5.94137 3.26527 1.04048 5.63406 1.12228 7.64847 0.377589 2.61227 0.836883 2.94506 4.42147 6.09912 2.4603 6.21126 4.93356 3.6461 1.49342 6.72741 1.627 2.35608 1.70875 4.17824 1.13814 3.21517 3.13268 4.25247 4.84373 3.59347 5.1426 2.34879 1.2211 1.7908 5.24854 2.56016 4.00198 3.13949 1.33068 7.19586 0.6951 2.04945 2.52583 2.43012 3.21543 5.87927 0.610976 7.00895 0.247639 2.93472 1.19655 2.56016 1.10755 3.67124 0.448696 5.77082 1.71953 3.94144 2.15049 2.72739 2.62656 0.343707 3.05313 4.52058 1.33315 6.54448 0.287626 5.19382 2.17742 0.510027 4.35881 1.11139 3.25492 0.257746 2.69637 3.26187 2.65642 2.75264 5.6791 2.25249 7.44091 2.80212 2.53481 2.8601 5.11584 2.02198 0.610976 3.07182 3.96001 3.62559 0.251 8.18906 1.23435 6.88463 3.49145 
</DataArray>
<DataArray type="Float64" Name="wall variable 0" format="ascii">