<VTKFile type="UnstructuredGrid" version="0.1">
<UnstructuredGrid>
<Piece  NumberOfPoints="    2408" NumberOfCells="     402">
<Points>
<DataArray type="Float64" NumberOfComponents="3" format="ascii">
-1.30218 -7.26114 0.0
-2.45753 -9.45581 0.0
1.39783 -19.9512 0.0
2.8368 -19.6659 0.0
2.93821 -19.4225 0.0
0.653624 -11.0979 0.0
-0.41669 -7.18816 0.0
-1.00416 -7.12844 0.0
24.1774 22.2203 0.0
24.3529 21.7907 0.0
26.4626 18.189 0.0
26.7849 18.1904 0.0
27.2703 18.1887 0.0
33.0481 20.4017 0.0
33.4943 21.9308 0.0
-3.51586 -47.8466 0.0
-3.10593 -46.5432 0.0
-10.7906 -47.8771 0.0
-12.7802 -50.2858 0.0
-12.4715 -51.2009 0.0
-7.23155 32.4066 0.0
-9.65806 29.0049 0.0
-1.01774 30.0566 0.0
-0.626746 30.4742 0.0
-1.301 32.109 0.0
-4.27975 34.1646 0.0
-29.7414 -41.3067 0.0
-29.2687 -39.5899 0.0
-35.1184 -37.641 0.0
-35.3716 -41.7532 0.0
-33.2186 -41.8094 0.0
23.2064 -37.7363 0.0
17.5666 -39.3435 0.0
16.1976 -43.6044 0.0
18.1044 -42.9985 0.0
18.8521 -42.772 0.0
24.2723 -38.1843 0.0
9.33317 -1.86212 0.0
8.8197 -4.34077 0.0
9.70606 -5.55289 0.0
16.6577 -2.80152 0.0
16.7408 -2.55296 0.0
16.7535 -1.7509 0.0
29.0277 -32.5617 0.0
27.3572 -30.6696 0.0
23.3567 -36.5701 0.0
23.8658 -37.145 0.0
24.9317 -37.593 0.0
25.8207 -37.6037 0.0
27.425 -35.1757 0.0
-14.4078 51.228 0.0
-12.3581 52.3467 0.0
-10.5972 54.3654 0.0
-10.7737 55.6655 0.0
-11.8242 57.2665 0.0
-15.9382 54.1516 0.0
-49.0079 4.74385 0.0
-48.2602 6.57046 0.0
-49.3097 9.03164 0.0
-51.5261 10.2654 0.0
-53.8597 10.3798 0.0
-54.4064 9.71211 0.0
-54.6613 4.26349 0.0
5.64098 27.9586 0.0
5.97546 27.5255 0.0
7.16898 26.5947 0.0
14.5164 25.0416 0.0
14.8487 25.5037 0.0
15.8217 28.0166 0.0
14.4898 29.2061 0.0
5.72019 29.3748 0.0
0.197382 -26.4994 0.0
-0.197098 -27.5999 0.0
5.45768 -31.3704 0.0
6.88085 -30.8661 0.0
7.44127 -28.8614 0.0
4.39058 -27.4564 0.0
37.519 46.4766 0.0
36.9508 48.4561 0.0
35.8114 49.9797 0.0
27.8172 53.8162 0.0
27.4549 53.6621 0.0
27.9144 52.2185 0.0
37.2286 45.4096 0.0
-21.2428 -25.5431 0.0
-18.4156 -25.6801 0.0
-16.7788 -20.7602 0.0
-21.7319 -19.1072 0.0
-22.7296 -21.3322 0.0
-23.4644 -23.8279 0.0
34.9544 -11.6097 0.0
33.2922 -11.6651 0.0
33.1776 -11.9406 0.0
34.514 -17.1631 0.0
35.0942 -17.7421 0.0
37.7711 -16.7025 0.0
38.9053 -15.9403 0.0
-43.2328 -5.51388 0.0
-43.2456 -5.5554 0.0
-42.2798 -8.56087 0.0
-37.8553 -12.259 0.0
-36.3839 -13.3452 0.0
-35.6208 -13.1604 0.0
-34.673 -10.7701 0.0
-35.0114 -9.81576 0.0
-10.863 27.9961 0.0
-14.9839 26.5515 0.0
-15.0698 20.6146 0.0
-10.9287 23.8438 0.0
-10.595 24.3654 0.0
29.2013 10.4572 0.0
27.6766 9.82588 0.0
27.2043 9.58659 0.0
27.7697 6.29417 0.0
28.6391 5.79432 0.0
34.4571 6.18942 0.0
37.9904 7.13353 0.0
37.8317 7.54902 0.0
15.9729 -57.8509 0.0
17.5226 -57.6359 0.0
18.7309 -56.3411 0.0
19.6478 -53.9153 0.0
19.4992 -52.7438 0.0
18.0487 -50.5594 0.0
15.8242 -50.1029 0.0
15.6727 -50.2257 0.0
27.1197 -30.5228 0.0
26.5069 -29.8356 0.0
21.7756 -32.4789 0.0
21.3385 -34.6028 0.0
23.1192 -36.4233 0.0
-42.7203 31.0108 0.0
-42.8626 31.6032 0.0
-53.0719 31.4421 0.0
-54.619 30.2554 0.0
-54.9899 29.2241 0.0
-53.8513 29.0437 0.0
-40.4785 29.3032 0.0
-37.5977 29.4973 0.0
-36.0967 29.9243 0.0
-35.5111 31.2089 0.0
-34.7473 34.9715 0.0
-35.4207 35.8334 0.0
-36.0279 35.6259 0.0
-34.6741 38.2053 0.0
-34.8504 36.7097 0.0
-34.177 35.8478 0.0
-30.3847 39.1708 0.0
-27.6774 45.5754 0.0
-27.9504 45.9672 0.0
-29.2829 45.6922 0.0
-21.9046 10.096 0.0
-18.3002 12.9364 0.0
-18.4978 16.8506 0.0
-19.4921 17.5607 0.0
-25.4399 15.9365 0.0
-9.81679 28.6303 0.0
-10.2052 28.2781 0.0
-9.93718 24.6475 0.0
-2.9052 27.2592 0.0
-2.45613 27.6232 0.0
-1.17647 29.682 0.0
5.79804 52.738 0.0
7.60224 52.0386 0.0
12.4042 54.8746 0.0
6.99867 56.3037 0.0
3.11024 56.602 0.0
3.67275 55.7868 0.0
-29.6224 -0.26979 0.0
-27.7488 -0.484978 0.0
-26.4342 2.37742 0.0
-31.3453 7.32043 0.0
4.43563 18.9926 0.0
4.0487 19.1025 0.0
0.357139 18.622 0.0
-1.92784 11.9367 0.0
-2.1463 10.663 0.0
0.27546 12.0799 0.0
2.71693 13.5454 0.0
-16.0322 40.9954 0.0
-19.7862 41.7182 0.0
-25.0942 33.1817 0.0
-23.6295 33.6099 0.0
-15.9246 40.316 0.0
49.3758 4.06602 0.0
49.1974 4.26141 0.0
44.0884 0.313896 0.0
44.2737 -4.24022 0.0
47.1555 -1.11019 0.0
3.61053 31.1499 0.0
3.98778 31.1497 0.0
6.10255 36.68 0.0
3.16847 40.5623 0.0
2.19604 38.2787 0.0
-34.9368 31.0956 0.0
-35.5224 29.811 0.0
-33.4358 28.1617 0.0
-28.9467 29.3233 0.0
-27.9442 31.3685 0.0
-28.163 34.0124 0.0
-28.5834 34.263 0.0
15.6883 39.0419 0.0
19.4833 37.1268 0.0
20.4222 43.9547 0.0
17.1654 44.9157 0.0
16.4191 44.752 0.0
15.2149 42.6192 0.0
15.0937 42.3706 0.0
3.99844 -38.8674 0.0
2.766 -36.6656 0.0
0.573885 -33.7553 0.0
-0.290266 -33.3946 0.0
-1.43461 -33.9326 0.0
-2.52987 -36.1239 0.0
-2.50581 -38.8394 0.0
19.6902 -24.8701 0.0
25.7089 -22.5002 0.0
26.0252 -19.9437 0.0
20.7294 -21.7013 0.0
20.4637 -21.8617 0.0
18.532 -23.8029 0.0
19.5397 -24.8129 0.0
-47.9458 -7.47699 0.0
-46.3197 -6.67439 0.0
-44.2421 -5.05568 0.0
-44.2293 -5.01415 0.0
-44.2488 -4.61423 0.0
-49.6354 -2.14403 0.0
-52.5825 -3.09554 0.0
-52.9226 -3.95509 0.0
-46.0409 -19.6021 0.0
-46.1619 -19.7945 0.0
-45.2686 -24.2555 0.0
-43.483 -29.7205 0.0
-41.8958 -29.219 0.0
-41.3046 -25.1285 0.0
-49.0161 -28.0029 0.0
-50.5776 -25.9016 0.0
-56.8228 -26.4597 0.0
-53.1054 -31.0209 0.0
-42.8918 36.9402 0.0
-42.6469 36.8571 0.0
-40.9969 39.3292 0.0
-40.2659 45.4826 0.0
-41.2419 49.2951 0.0
-41.3018 49.3907 0.0
-41.9093 49.4269 0.0
-13.5811 43.9589 0.0
-15.1494 41.3496 0.0
-15.0418 40.6702 0.0
-14.7372 40.3156 0.0
-9.71175 39.7621 0.0
-8.37085 40.3783 0.0
-7.56291 42.7399 0.0
-51.4929 22.3958 0.0
-54.4638 23.8935 0.0
-57.7101 18.764 0.0
-57.7378 18.0032 0.0
-56.9778 16.9648 0.0
52.3543 13.9964 0.0
51.8163 16.4181 0.0
47.9589 17.9075 0.0
47.6402 16.4627 0.0
48.023 14.2925 0.0
48.8926 11.1397 0.0
52.7328 14.2988 0.0
53.1333 13.9551 0.0
56.4577 18.3259 0.0
51.4673 21.5049 0.0
52.1948 16.7205 0.0
-40.3046 -24.3395 0.0
-40.8596 -25.3793 0.0
-41.4508 -29.4699 0.0
-38.7203 -30.4398 0.0
-35.8193 -27.7452 0.0
5.31886 -55.2487 0.0
7.17847 -52.8759 0.0
7.31627 -52.4905 0.0
4.20776 -43.7295 0.0
3.2997 -43.9892 0.0
37.9625 2.88048 0.0
37.5134 1.53126 0.0
38.9361 -4.64753 0.0
39.4724 -4.36761 0.0
40.7555 4.65593 0.0
39.4435 5.21368 0.0
21.712 -14.7688 0.0
19.104 -16.1993 0.0
20.3848 -21.3506 0.0
20.6505 -21.1901 0.0
25.1787 -15.9238 0.0
22.8323 -14.8231 0.0
49.0991 10.7257 0.0
48.9125 8.53617 0.0
55.1808 9.54045 0.0
52.9613 13.2387 0.0
52.5608 13.5824 0.0
12.5013 36.2504 0.0
13.9659 36.879 0.0
15.1156 38.7946 0.0
14.521 42.1233 0.0
11.6415 41.3237 0.0
7.64735 37.3478 0.0
27.7635 -35.4245 0.0
26.1592 -37.8525 0.0
27.2817 -38.7598 0.0
31.2619 -38.409 0.0
33.7993 -35.5191 0.0
0.97125 -11.3164 0.0
3.25584 -19.6409 0.0
4.71128 -18.3063 0.0
5.41504 -14.8669 0.0
-55.1722 14.4364 0.0
-56.5024 15.0876 0.0
-61.9514 10.7644 0.0
-59.4459 10.0571 0.0
-54.9724 10.196 0.0
-54.4256 10.8637 0.0
-19.8127 51.3506 0.0
-19.6037 51.7442 0.0
-18.7222 56.8952 0.0
-25.8706 48.824 0.0
-17.2469 -26.2112 0.0
-12.9629 -28.0911 0.0
-10.7753 -26.0344 0.0
-10.5809 -24.1964 0.0
-11.6006 -23.1928 0.0
7.55387 -17.9141 0.0
13.4498 -16.9891 0.0
12.3209 -12.9354 0.0
11.8161 -12.1943 0.0
11.023 -12.0268 0.0
-1.63182 27.7105 0.0
-1.41457 27.0351 0.0
3.45081 26.2778 0.0
4.72438 28.0411 0.0
4.80359 29.4572 0.0
4.71222 29.6278 0.0
3.7726 30.3795 0.0
3.39536 30.3798 0.0
0.0388436 30.1869 0.0
-0.352155 29.7693 0.0
37.5828 39.6908 0.0
37.436 38.4996 0.0
43.85 32.0121 0.0
45.2011 31.4536 0.0
45.0237 32.8946 0.0
41.4451 39.6902 0.0
38.9759 41.2235 0.0
29.6395 37.5822 0.0
34.0545 36.1251 0.0
34.9691 35.8245 0.0
36.6996 38.6361 0.0
36.8464 39.8273 0.0
33.8815 40.2279 0.0
12.8121 -12.7356 0.0
13.941 -16.7893 0.0
14.734 -17.4413 0.0
16.4246 -16.3016 0.0
18.4711 -11.6266 0.0
19.0846 -9.1191 0.0
43.2786 -5.63989 0.0
43.8554 -4.30803 0.0
43.6701 0.246082 0.0
43.4276 5.05265 0.0
41.0445 4.5077 0.0
39.7614 -4.51585 0.0
27.2564 17.5088 0.0
26.771 17.5104 0.0
27.3721 10.423 0.0
28.8968 11.0543 0.0
31.1572 13.4846 0.0
25.5024 -45.9184 0.0
24.3163 -46.4212 0.0
24.7462 -51.2172 0.0
30.1663 -50.5594 0.0
30.332 -49.7969 0.0
30.2901 -49.4605 0.0
-12.5796 -29.88 0.0
-7.48227 -32.9181 0.0
-8.15176 -28.3038 0.0
-9.28108 -27.1586 0.0
-10.4443 -26.4053 0.0
-12.632 -28.462 0.0
-16.8089 26.4842 0.0
-15.8582 27.1519 0.0
-13.7138 32.9152 0.0
-18.4582 31.7613 0.0
-18.7195 31.4949 0.0
52.451 -24.1488 0.0
52.3179 -23.4921 0.0
42.4614 -22.8687 0.0
41.0877 -23.1706 0.0
39.4738 -24.3591 0.0
39.4845 -25.4301 0.0
52.2457 -24.4935 0.0
-55.8454 -4.96388 0.0
-55.0561 -5.36146 0.0
-53.6813 -3.55314 0.0
-53.3413 -2.69359 0.0
-55.6175 2.58065 0.0
-57.9602 3.27044 0.0
-59.6067 3.17439 0.0
-3.58285 0.123784 0.0
-4.82639 1.5472 0.0
-8.74665 -0.947586 0.0
-3.85424 -5.02979 0.0
-1.8006 -6.12692 0.0
-1.50258 -5.99421 0.0
47.7602 22.7492 0.0
48.8208 25.1008 0.0
47.9312 28.2902 0.0
46.5709 28.8737 0.0
42.3275 24.9136 0.0
42.0721 24.2217 0.0
42.4466 23.3264 0.0
-12.2655 -30.5207 0.0
-12.4237 -30.9689 0.0
-5.80319 -39.6459 0.0
-3.99785 -40.6021 0.0
-3.20233 -38.7558 0.0
-3.2264 -36.0402 0.0
-7.16816 -33.5587 0.0
-32.0304 10.0299 0.0
-31.9509 8.45201 0.0
-31.2513 7.65675 0.0
-26.3401 2.71374 0.0
-24.8328 3.68586 0.0
-24.0181 4.87225 0.0
-29.571 -41.7597 0.0
-33.0482 -42.2624 0.0
-32.3996 -48.3224 0.0
-29.0851 -45.8411 0.0
-28.7574 -45.367 0.0
-20.0925 -2.16195 0.0
-16.3137 -2.08391 0.0
-17.8814 2.02347 0.0
-18.1924 2.44587 0.0
-19.2462 3.08028 0.0
-23.008 4.58566 0.0
-23.2282 4.36503 0.0
-24.0428 3.17864 0.0
-33.3555 0.290356 0.0
-34.45 3.78992 0.0
-39.106 5.63104 0.0
-40.6698 5.54878 0.0
-41.485 4.7756 0.0
-40.9795 1.85331 0.0
-22.9016 -32.7977 0.0
-21.6489 -29.7054 0.0
-21.6475 -26.0903 0.0
-23.8692 -24.3751 0.0
-25.6432 -24.6052 0.0
-28.0466 -27.6561 0.0
18.6164 47.7741 0.0
20.27 50.9082 0.0
14.3529 50.0392 0.0
13.5213 48.4934 0.0
16.3093 45.4678 0.0
17.0556 45.6314 0.0
-17.9092 -25.722 0.0
-17.4358 -25.9347 0.0
-11.7895 -22.9163 0.0
-14.1787 -20.4473 0.0
-16.2724 -20.8021 0.0
13.2128 10.1739 0.0
13.6042 8.59211 0.0
14.6405 7.06496 0.0
18.4499 15.6021 0.0
17.4201 16.9234 0.0
17.1357 16.9824 0.0
[...]
<CellData Scalars="cell variable 4" Vectors="cell vector">
<DataArray type="Float64" NumberOfComponents="3" Name="cell vector" format="ascii">
0 0 0
0 0 0
0 0 0
0 0 0
0 0 0
0 0 0
0 0 0
0 0 0
0 0 0
0 0 0
0 0 0
0 0 0
0 0 0
0 0 0
0 0 0
0 0 0
0 0 0
0 0 0
0 0 0
0 0 0
0 0 0
0 0 0
0 0 0
0 0 0
0 0 0
0 0 0
0 0 0
0 0 0
0 0 0
0 0 0
0 0 0
0 0 0
0 0 0
0 0 0
0 0 0
0 0 0
0 0 0
0 0 0
0 0 0
0 0 0
0 0 0
0 0 0
0 0 0
0 0 0
0 0 0
0 0 0
0 0 0
0 0 0
0 0 0
0 0 0
0 0 0
0 0 0
0 0 0
0 0 0
0 0 0
0 0 0
0 0 0
0 0 0
0 0 0
0 0 0
0 0 0
0 0 0
0 0 0
0 0 0
0 0 0
0 0 0
0 0 0
0 0 0
0 0 0
0 0 0
0 0 0
0 0 0
0 0 0
0 0 0
0 0 0
0 0 0
0 0 0
0 0 0
0 0 0
0 0 0
0 0 0
0 0 0
0 0 0
0 0 0
0 0 0
0 0 0
0 0 0
0 0 0
0 0 0
0 0 0
0 0 0
0 0 0
0 0 0
0 0 0
0 0 0
0 0 0
0 0 0
0 0 0
0 0 0
0 0 0
0 0 0
0 0 0
0 0 0
0 0 0
0 0 0
0 0 0
0 0 0
0 0 0
0 0 0
0 0 0
0 0 0
0 0 0
0 0 0
0 0 0
0 0 0
0 0 0
0 0 0
0 0 0
0 0 0
0 0 0
0 0 0
0 0 0
0 0 0
0 0 0
0 0 0
0 0 0
0 0 0
0 0 0
0 0 0
0 0 0
0 0 0
0 0 0
0 0 0
0 0 0
0 0 0
0 0 0
0 0 0
0 0 0
0 0 0
0 0 0
0 0 0
0 0 0
0 0 0
0 0 0
0 0 0
0 0 0
0 0 0
0 0 0
0 0 0
0 0 0
0 0 0
0 0 0
0 0 0
0 0 0
0 0 0
0 0 0
0 0 0
0 0 0
0 0 0
0 0 0
0 0 0
0 0 0
0 0 0
0 0 0
0 0 0
0 0 0
0 0 0
0 0 0
0 0 0
0 0 0
0 0 0
0 0 0
0 0 0
0 0 0
0 0 0
0 0 0
0 0 0
0 0 0
0 0 0
0 0 0
0 0 0
0 0 0
0 0 0
0 0 0
0 0 0
0 0 0
0 0 0
0 0 0
0 0 0
0 0 0
0 0 0
0 0 0
0 0 0
0 0 0
0 0 0
0 0 0
0 0 0
0 0 0
0 0 0
0 0 0
0 0 0
0 0 0
0 0 0
0 0 0
0 0 0
0 0 0
0 0 0
0 0 0
0 0 0
0 0 0
0 0 0
0 0 0
0 0 0
0 0 0
0 0 0
0 0 0
0 0 0
0 0 0
0 0 0
0 0 0
0 0 0
0 0 0
0 0 0
0 0 0
0 0 0
0 0 0
0 0 0
0 0 0
0 0 0
0 0 0
0 0 0
0 0 0
0 0 0
0 0 0
0 0 0
0 0 0
0 0 0
0 0 0
0 0 0
0 0 0
0 0 0
0 0 0
0 0 0
0 0 0
0 0 0
0 0 0
0 0 0
0 0 0
0 0 0
0 0 0
0 0 0
0 0 0
0 0 0
0 0 0
0 0 0
0 0 0
0 0 0
0 0 0
0 0 0
0 0 0
0 0 0
0 0 0
0 0 0
0 0 0
0 0 0
0 0 0
0 0 0
0 0 0
0 0 0
0 0 0
0 0 0
0 0 0
0 0 0
0 0 0
0 0 0
0 0 0
0 0 0
0 0 0
0 0 0
0 0 0
0 0 0
0 0 0
0 0 0
0 0 0
0 0 0
0 0 0
0 0 0
0 0 0
0 0 0
0 0 0
0 0 0
0 0 0
0 0 0
0 0 0
0 0 0
0 0 0
0 0 0
0 0 0
0 0 0
0 0 0
0 0 0
0 0 0
0 0 0
0 0 0
0 0 0
0 0 0
0 0 0
0 0 0
0 0 0
0 0 0
0 0 0
0 0 0
0 0 0
0 0 0
0 0 0
0 0 0
0 0 0
0 0 0
0 0 0
0 0 0
0 0 0
0 0 0
0 0 0
0 0 0
0 0 0
0 0 0
0 0 0
0 0 0
0 0 0
0 0 0
0 0 0
0 0 0
0 0 0
0 0 0
0 0 0
0 0 0
0 0 0
0 0 0
0 0 0
0 0 0
0 0 0
0 0 0
0 0 0
0 0 0
0 0 0
0 0 0
0 0 0
0 0 0
0 0 0
0 0 0
0 0 0
0 0 0
0 0 0
0 0 0
0 0 0
0 0 0
0 0 0
0 0 0
0 0 0
0 0 0
0 0 0
0 0 0
0 0 0
0 0 0
0 0 0
0 0 0
0 0 0
0 0 0
0 0 0
0 0 0
0 0 0
0 0 0
0 0 0
0 0 0
0 0 0
0 0 0
0 0 0
0 0 0
0 0 0
0 0 0
0 0 0
0 0 0
0 0 0
0 0 0
0 0 0
0 0 0
0 0 0
0 0 0
0 0 0
0 0 0
0 0 0
0 0 0
0 0 0
0 0 0
0 0 0
0 0 0
0 0 0
0 0 0
0 0 0
0 0 0
0 0 0
0 0 0
</DataArray>
<DataArray type="Float64" Name="cell vector length" format="ascii">
0 0 0 0 0 0 0 0 0 0 0 0 0 0 0 0 0 0 0 0 0 0 0 0 0 0 0 0 0 0 0 0 0 0 0 0 0 0 0 0 0 0 0 0 0 0 0 0 0 0 0 0 0 0 0 0 0 0 0 0 0 0 0 0 0 0 0 0 0 0 0 0 0 0 0 0 0 0 0 0 0 0 0 0 0 0 0 0 0 0 0 0 0 0 0 0 0 0 0 0 0 0 0 0 0 0 0 0 0 0 0 0 0 0 0 0 0 0 0 0 0 0 0 0 0 0 0 0 0 0 0 0 0 0 0 0 0 0 0 0 0 0 0 0 0 0 0 0 0 0 0 0 0 0 0 0 0 0 0 0 0 0 0 0 0 0 0 0 0 0 0 0 0 0 0 0 0 0 0 0 0 0 0 0 0 0 0 0 0 0 0 0 0 0 0 0 0 0 0 0 0 0 0 0 0 0 0 0 0 0 0 0 0 0 0 0 0 0 0 0 0 0 0 0 0 0 0 0 0 0 0 0 0 0 0 0 0 0 0 0 0 0 0 0 0 0 0 0 0 0 0 0 0 0 0 0 0 0 0 0 0 0 0 0 0 0 0 0 0 0 0 0 0 0 0 0 0 0 0 0 0 0 0 0 0 0 0 0 0 0 0 0 0 0 0 0 0 0 0 0 0 0 0 0 0 0 0 0 0 0 0 0 0 0 0 0 0 0 0 0 0 0 0 0 0 0 0 0 0 0 0 0 0 0 0 0 0 0 0 0 0 0 0 0 0 0 0 0 0 0 0 0 0 0 0 0 0 0 0 0 0 0 0 0 0 0 0 0 0 0 0 0 0 0 0 0 0 0 0 0 0 0 0 0 0 0 0 0 0 0 0 0 0 0 0 0 0 0 0 0 0 0 
</DataArray>
<DataArray type="Float64" Name="cell variable 4" format="ascii">
1.11547 1.06245 0.789941 1.07467 0.631062 0.94865 1.11547 0.94865 0.763876 0.8063 1.14226 1.04461 0.790107 1.04461 0.912892 0.919422 1.07467 1.10185 0.789941 0.94865 0.673042 0.99432 0.99432 1.00681 1.07467 0.626025 1.00681 1.14226 0.99432 0.912892 0.980966 0.99432 0.980966 1.04461 1.11547 0.919422 0.919422 0.631062 0.673042 0.763876 0.8063 0.848855 0.848855 0.919422 0.789941 1.10185 1.11547 0.848855 0.980966 0.657465 1.11547 0.8063 0.763876 1.04461 1.11547 1.07467 1.06245 1.06245 1.11547 0.912892 1.10185 0.708918 1.04461 1.07467 0.912892 0.542818 1.12037 0.848855 1.04461 1.00681 0.631062 1.12037 1.00681 0.90618 0.626025 1.04461 1.14226 0.94865 0.90618 1.11547 0.573608 0.919422 1.11547 0.848855 1.11547 0.912892 1.04461 1.10185 1.14226 1.07467 0.790107 0.980966 0.99432 0.657465 0.980966 0.980966 0.763876 0.919422 1.12037 1.11547 1.04461 1.04461 0.919422 0.94865 0.919422 0.919422 0.99432 1.12037 0.631062 0.912892 0.763876 0.790107 0.763876 0.673042 0.912892 1.14226 0.789941 0.657465 1.11547 0.789941 0.626025 1.07467 1.00681 0.94865 0.673042 0.657465 0.789941 1.06245 0.99432 1.04461 0.66381 1.11547 1.00681 1.07467 1.06245 1.06245 0.631062 0.789941 1.04461 0.919422 0.790107 1.00681 1.12037 0.763876 0.542818 0.980966 1.07467 0.99432 0.980966 0.848855 1.04461 0.980966 0.919422 0.919422 1.00681 0.8063 0.912892 1.12037 0.631062 1.06245 1.07467 0.94865 1.04461 1.06245 1.00681 0.763876 0.657465 1.11547 1.11547 1.10185 1.10185 0.919422 1.12037 0.919422 0.848855 0.94865 1.00681 1.00681 0.66381 0.919422 1.12037 1.00681 1.00681 0.657465 1.00681 0.980966 0.763876 1.11547 0.673042 1.06245 1.07467 0.912892 1.07467 0.631062 0.980966 0.789941 0.94865 0.763876 0.8063 0.919422 0.790107 0.90618 0.919422 0.912892 1.12037 0.912892 0.919422 0.90618 0.763876 0.980966 1.07467 1.10185 0.912892 1.06245 0.980966 1.10185 0.980966 0.673042 1.07467 1.07467 1.04461 1.04461 0.790107 1.10185 0.657465 0.8063 0.573608 1.10185 0.912892 0.763876 1.07467 0.90618 0.848855 1.10185 1.04461 0.919422 1.10185 0.912892 0.980966 0.631062 0.99432 0.94865 0.919422 1.11547 0.919422 1.00681 0.90618 0.763876 0.919422 1.07467 1.10185 0.848855 0.626025 1.14226 0.912892 0.763876 1.10185 0.99432 1.06245 1.14226 1.11547 0.99432 1.06245 0.919422 0.626025 1.14226 1.14226 0.912892 0.912892 0.919422 1.11547 0.789941 0.919422 0.542818 1.14226 1.11547 0.94865 0.631062 0.94865 1.11547 0.626025 1.06245 0.8063 0.912892 0.789941 0.912892 0.631062 1.14226 1.10185 1.00681 0.912892 1.14226 0.94865 0.90618 0.790107 1.07467 0.66381 1.12037 1.06245 0.848855 0.912892 0.657465 1.12037 1.06245 0.912892 0.848855 0.657465 0.673042 0.94865 0.90618 0.90618 0.919422 1.12037 1.07467 0.912892 0.848855 1.10185 1.11547 0.980966 0.8063 0.631062 0.789941 0.789941 0.848855 0.763876 0.848855 0.789941 1.14226 1.07467 0.8063 1.04461 1.14226 0.912892 1.11547 0.94865 0.980966 0.90618 0.980966 1.04461 0.657465 0.90618 0.919422 1.00681 0.94865 0.99432 1.06245 0.8063 0.848855 0.99432 1.12037 0.657465 1.12037 0.919422 0.657465 1.00681 0.789941 1.00681 0.8063 0.8063 1.14226 1.12037 0.708918 0.980966 0.919422 0.919422 0.708918 0.848855 1.06245 0.789941 1.11547 0.980966 0.789941 1.00681 1.10185 0.90618 1.04461 1.12037 0.919422 1.10185 0.626025 0.66381 1.11547 1.06245 1.00681 0.631062 0.919422 0.626025 0.90618 1.14226 0.542818 1.07467 1.04461 0.90618 0.657465 1.04461 1.11547 0.763876 1.11547 1.06245 0.980966 0.99432 1.00681 
</DataArray>
<DataArray type="Float64" Name="cell variable 5" format="ascii">
0.00797274 0.00878122 0.0157727 0.00858434 0.0244954 0.0109898 0.00797274 0.0109898 0.016849 0.0151488 0.00760594 0.00908091 0.0157662 0.00908091 0.0118572 0.0116913 0.00858434 0.00816951 0.0157727 0.0109898 0.021599 0.0100133 0.0100133 0.00976872 0.00858434 0.0248813 0.00976872 0.00760594 0.0100133 0.0118572 0.0102849 0.0100133 0.0102849 0.00908091 0.00797274 0.0116913 0.0116913 0.0244954 0.021599 0.016849 0.0151488 0.0136882 0.0136882 0.0116913 0.0157727 0.00816951 0.00797274 0.0136882 0.0102849 0.0226112 0.00797274 0.0151488 0.016849 0.00908091 0.00797274 0.00858434 0.00878122 0.00878122 0.00797274 0.0118572 0.00816951 0.0195097 0.00908091 0.00858434 0.0118572 0.0328244 0.00790366 0.0136882 0.00908091 0.00976872 0.0244954 0.00790366 0.00976872 0.0120314 0.0248813 0.00908091 0.00760594 0.0109898 0.0120314 0.00797274 0.0294962 0.0116913 0.00797274 0.0136882 0.00797274 0.0118572 0.00908091 0.00816951 0.00760594 0.00858434 0.0157662 0.0102849 0.0100133 0.0226112 0.0102849 0.0102849 0.016849 0.0116913 0.00790366 0.00797274 0.00908091 0.00908091 0.0116913 0.0109898 0.0116913 0.0116913 0.0100133 0.00790366 0.0244954 0.0118572 0.016849 0.0157662 0.016849 0.021599 0.0118572 0.00760594 0.0157727 0.0226112 0.00797274 0.0157727 0.0248813 0.00858434 0.00976872 0.0109898 0.021599 0.0226112 0.0157727 0.00878122 0.0100133 0.00908091 0.0221905 0.00797274 0.00976872 0.00858434 0.00878122 0.00878122 0.0244954 0.0157727 0.00908091 0.0116913 0.0157662 0.00976872 0.00790366 0.016849 0.0328244 0.0102849 0.00858434 0.0100133 0.0102849 0.0136882 0.00908091 0.0102849 0.0116913 0.0116913 0.00976872 0.0151488 0.0118572 0.00790366 0.0244954 0.00878122 0.00858434 0.0109898 0.00908091 0.00878122 0.00976872 0.016849 0.0226112 0.00797274 0.00797274 0.00816951 0.00816951 0.0116913 0.00790366 0.0116913 0.0136882 0.0109898 0.00976872 0.00976872 0.0221905 0.0116913 0.00790366 0.00976872 0.00976872 0.0226112 0.00976872 0.0102849 0.016849 0.00797274 0.021599 0.00878122 0.00858434 0.0118572 0.00858434 0.0244954 0.0102849 0.0157727 0.0109898 0.016849 0.0151488 0.0116913 0.0157662 0.0120314 0.0116913 0.0118572 0.00790366 0.0118572 0.0116913 0.0120314 0.016849 0.0102849 0.00858434 0.00816951 0.0118572 0.00878122 0.0102849 0.00816951 0.0102849 0.021599 0.00858434 0.00858434 0.00908091 0.00908091 0.0157662 0.00816951 0.0226112 0.0151488 0.0294962 0.00816951 0.0118572 0.016849 0.00858434 0.0120314 0.0136882 0.00816951 0.00908091 0.0116913 0.00816951 0.0118572 0.0102849 0.0244954 0.0100133 0.0109898 0.0116913 0.00797274 0.0116913 0.00976872 0.0120314 0.016849 0.0116913 0.00858434 0.00816951 0.0136882 0.0248813 0.00760594 0.0118572 0.016849 0.00816951 0.0100133 0.00878122 0.00760594 0.00797274 0.0100133 0.00878122 0.0116913 0.0248813 0.00760594 0.00760594 0.0118572 0.0118572 0.0116913 0.00797274 0.0157727 0.0116913 0.0328244 0.00760594 0.00797274 0.0109898 0.0244954 0.0109898 0.00797274 0.0248813 0.00878122 0.0151488 0.0118572 0.0157727 0.0118572 0.0244954 0.00760594 0.00816951 0.00976872 0.0118572 0.00760594 0.0109898 0.0120314 0.0157662 0.00858434 0.0221905 0.00790366 0.00878122 0.0136882 0.0118572 0.0226112 0.00790366 0.00878122 0.0118572 0.0136882 0.0226112 0.021599 0.0109898 0.0120314 0.0120314 0.0116913 0.00790366 0.00858434 0.0118572 0.0136882 0.00816951 0.00797274 0.0102849 0.0151488 0.0244954 0.0157727 0.0157727 0.0136882 0.016849 0.0136882 0.0157727 0.00760594 0.00858434 0.0151488 0.00908091 0.00760594 0.0118572 0.00797274 0.0109898 0.0102849 0.0120314 0.0102849 0.00908091 0.0226112 0.0120314 0.0116913 0.00976872 0.0109898 0.0100133 0.00878122 0.0151488 0.0136882 0.0100133 0.00790366 0.0226112 0.00790366 0.0116913 0.0226112 0.00976872 0.0157727 0.00976872 0.0151488 0.0151488 0.00760594 0.00790366 0.0195097 0.0102849 0.0116913 0.0116913 0.0195097 0.0136882 0.00878122 0.0157727 0.00797274 0.0102849 0.0157727 0.00976872 0.00816951 0.0120314 0.00908091 0.00790366 0.0116913 0.00816951 0.0248813 0.0221905 0.00797274 0.00878122 0.00976872 0.0244954 0.0116913 0.0248813 0.0120314 0.00760594 0.0328244 0.00858434 0.00908091 0.0120314 0.0226112 0.00908091 0.00797274 0.016849 0.00797274 0.00878122 0.0102849 0.0100133 0.00976872 
</DataArray>
<DataArray type="Float64" Name="cell variable 6" format="ascii">
4.32387e-06 5.74138e-06 3.156e-05 5.3719e-06 0.000110922 1.10661e-05 4.32387e-06 1.10661e-05 3.81646e-05 2.80904e-05 3.76475e-06 6.33494e-06 3.15261e-05 6.33494e-06 1.38076e-05 1.32528e-05 5.3719e-06 4.64493e-06 3.156e-05 1.10661e-05 7.76673e-05 8.43313e-06 8.43313e-06 7.8448e-06 5.3719e-06 0.000115922 7.8448e-06 3.76475e-06 8.43313e-06 1.38076e-05 9.11938e-06 8.43313e-06 9.11938e-06 6.33494e-06 4.32387e-06 1.32528e-05 1.32528e-05 0.000110922 7.76673e-05 3.81646e-05 2.80904e-05 2.09522e-05 2.09522e-05 1.32528e-05 3.156e-05 4.64493e-06 4.32387e-06 2.09522e-05 9.11938e-06 8.84138e-05 4.32387e-06 2.80904e-05 3.81646e-05 6.33494e-06 4.32387e-06 5.3719e-06 5.74138e-06 5.74138e-06 4.32387e-06 1.38076e-05 4.64493e-06 5.81379e-05 6.33494e-06 5.3719e-06 1.38076e-05 0.000251962 4.21468e-06 2.09522e-05 6.33494e-06 7.8448e-06 0.000110922 4.21468e-06 7.8448e-06 1.4406e-05 0.000115922 6.33494e-06 3.76475e-06 1.10661e-05 1.4406e-05 4.32387e-06 0.000187165 1.32528e-05 4.32387e-06 2.09522e-05 4.32387e-06 1.38076e-05 6.33494e-06 4.64493e-06 3.76475e-06 5.3719e-06 3.15261e-05 9.11938e-06 8.43313e-06 8.84138e-05 9.11938e-06 9.11938e-06 3.81646e-05 1.32528e-05 4.21468e-06 4.32387e-06 6.33494e-06 6.33494e-06 1.32528e-05 1.10661e-05 1.32528e-05 1.32528e-05 8.43313e-06 4.21468e-06 0.000110922 1.38076e-05 3.81646e-05 3.15261e-05 3.81646e-05 7.76673e-05 1.38076e-05 3.76475e-06 3.156e-05 8.84138e-05 4.32387e-06 3.156e-05 0.000115922 5.3719e-06 7.8448e-06 1.10661e-05 7.76673e-05 8.84138e-05 3.156e-05 5.74138e-06 8.43313e-06 6.33494e-06 8.3838e-05 4.32387e-06 7.8448e-06 5.3719e-06 5.74138e-06 5.74138e-06 0.000110922 3.156e-05 6.33494e-06 1.32528e-05 3.15261e-05 7.8448e-06 4.21468e-06 3.81646e-05 0.000251962 9.11938e-06 5.3719e-06 8.43313e-06 9.11938e-06 2.09522e-05 6.33494e-06 9.11938e-06 1.32528e-05 1.32528e-05 7.8448e-06 2.80904e-05 1.38076e-05 4.21468e-06 0.000110922 5.74138e-06 5.3719e-06 1.10661e-05 6.33494e-06 5.74138e-06 7.8448e-06 3.81646e-05 8.84138e-05 4.32387e-06 4.32387e-06 4.64493e-06 4.64493e-06 1.32528e-05 4.21468e-06 1.32528e-05 2.09522e-05 1.10661e-05 7.8448e-06 7.8448e-06 8.3838e-05 1.32528e-05 4.21468e-06 7.8448e-06 7.8448e-06 8.84138e-05 7.8448e-06 9.11938e-06 3.81646e-05 4.32387e-06 7.76673e-05 5.74138e-06 5.3719e-06 1.38076e-05 5.3719e-06 0.000110922 9.11938e-06 3.156e-05 1.10661e-05 3.81646e-05 2.80904e-05 1.32528e-05 3.15261e-05 1.4406e-05 1.32528e-05 1.38076e-05 4.21468e-06 1.38076e-05 1.32528e-05 1.4406e-05 3.81646e-05 9.11938e-06 5.3719e-06 4.64493e-06 1.38076e-05 5.74138e-06 9.11938e-06 4.64493e-06 9.11938e-06 7.76673e-05 5.3719e-06 5.3719e-06 6.33494e-06 6.33494e-06 3.15261e-05 4.64493e-06 8.84138e-05 2.80904e-05 0.000187165 4.64493e-06 1.38076e-05 3.81646e-05 5.3719e-06 1.4406e-05 2.09522e-05 4.64493e-06 6.33494e-06 1.32528e-05 4.64493e-06 1.38076e-05 9.11938e-06 0.000110922 8.43313e-06 1.10661e-05 1.32528e-05 4.32387e-06 1.32528e-05 7.8448e-06 1.4406e-05 3.81646e-05 1.32528e-05 5.3719e-06 4.64493e-06 2.09522e-05 0.000115922 3.76475e-06 1.38076e-05 3.81646e-05 4.64493e-06 8.43313e-06 5.74138e-06 3.76475e-06 4.32387e-06 8.43313e-06 5.74138e-06 1.32528e-05 0.000115922 3.76475e-06 3.76475e-06 1.38076e-05 1.38076e-05 1.32528e-05 4.32387e-06 3.156e-05 1.32528e-05 0.000251962 3.76475e-06 4.32387e-06 1.10661e-05 0.000110922 1.10661e-05 4.32387e-06 0.000115922 5.74138e-06 2.80904e-05 1.38076e-05 3.156e-05 1.38076e-05 0.000110922 3.76475e-06 4.64493e-06 7.8448e-06 1.38076e-05 3.76475e-06 1.10661e-05 1.4406e-05 3.15261e-05 5.3719e-06 8.3838e-05 4.21468e-06 5.74138e-06 2.09522e-05 1.38076e-05 8.84138e-05 4.21468e-06 5.74138e-06 1.38076e-05 2.09522e-05 8.84138e-05 7.76673e-05 1.10661e-05 1.4406e-05 1.4406e-05 1.32528e-05 4.21468e-06 5.3719e-06 1.38076e-05 2.09522e-05 4.64493e-06 4.32387e-06 9.11938e-06 2.80904e-05 0.000110922 3.156e-05 3.156e-05 2.09522e-05 3.81646e-05 2.09522e-05 3.156e-05 3.76475e-06 5.3719e-06 2.80904e-05 6.33494e-06 3.76475e-06 1.38076e-05 4.32387e-06 1.10661e-05 9.11938e-06 1.4406e-05 9.11938e-06 6.33494e-06 8.84138e-05 1.4406e-05 1.32528e-05 7.8448e-06 1.10661e-05 8.43313e-06 5.74138e-06 2.80904e-05 2.09522e-05 8.43313e-06 4.21468e-06 8.84138e-05 4.21468e-06 1.32528e-05 8.84138e-05 7.8448e-06 3.156e-05 7.8448e-06 2.80904e-05 2.80904e-05 3.76475e-06 4.21468e-06 5.81379e-05 9.11938e-06 1.32528e-05 1.32528e-05 5.81379e-05 2.09522e-05 5.74138e-06 3.156e-05 4.32387e-06 9.11938e-06 3.156e-05 7.8448e-06 4.64493e-06 1.4406e-05 6.33494e-06 4.21468e-06 1.32528e-05 4.64493e-06 0.000115922 8.3838e-05 4.32387e-06 5.74138e-06 7.8448e-06 0.000110922 1.32528e-05 0.000115922 1.4406e-05 3.76475e-06 0.000251962 5.3719e-06 6.33494e-06 1.4406e-05 8.84138e-05 6.33494e-06 4.32387e-06 3.81646e-05 4.32387e-06 5.74138e-06 9.11938e-06 8.43313e-06 7.8448e-06 
</DataArray>
<DataArray type="Float64" Name="cell variable 7" format="ascii">
0.0788486 0.0886341 0.142859 0.0863829 0.184332 0.109939 0.0788486 0.109939 0.148901 0.139181 0.0738515 0.091923 0.142821 0.091923 0.116913 0.115625 0.0863829 0.0813708 0.142859 0.109939 0.172124 0.10127 0.10127 0.0989326 0.0863829 0.185875 0.0989326 0.0738515 0.10127 0.116913 0.103782 0.10127 0.103782 0.091923 0.0788486 0.115625 0.115625 0.184332 0.172124 0.148901 0.139181 0.129973 0.129973 0.115625 0.142859 0.0813708 0.0788486 0.129973 0.103782 0.176526 0.0788486 0.139181 0.148901 0.091923 0.0788486 0.0863829 0.0886341 0.0886341 0.0788486 0.116913 0.0813708 0.162493 0.091923 0.0863829 0.116913 0.214434 0.0779382 0.129973 0.091923 0.0989326 0.184332 0.0779382 0.0989326 0.118245 0.185875 0.091923 0.0738515 0.109939 0.118245 0.0788486 0.203114 0.115625 0.0788486 0.129973 0.0788486 0.116913 0.091923 0.0813708 0.0738515 0.0863829 0.142821 0.103782 0.10127 0.176526 0.103782 0.103782 0.148901 0.115625 0.0779382 0.0788486 0.091923 0.091923 0.115625 0.109939 0.115625 0.115625 0.10127 0.0779382 0.184332 0.116913 0.148901 0.142821 0.148901 0.172124 0.116913 0.0738515 0.142859 0.176526 0.0788486 0.142859 0.185875 0.0863829 0.0989326 0.109939 0.172124 0.176526 0.142859 0.0886341 0.10127 0.091923 0.174715 0.0788486 0.0989326 0.0863829 0.0886341 0.0886341 0.184332 0.142859 0.091923 0.115625 0.142821 0.0989326 0.0779382 0.148901 0.214434 0.103782 0.0863829 0.10127 0.103782 0.129973 0.091923 0.103782 0.115625 0.115625 0.0989326 0.139181 0.116913 0.0779382 0.184332 0.0886341 0.0863829 0.109939 0.091923 0.0886341 0.0989326 0.148901 0.176526 0.0788486 0.0788486 0.0813708 0.0813708 0.115625 0.0779382 0.115625 0.129973 0.109939 0.0989326 0.0989326 0.174715 0.115625 0.0779382 0.0989326 0.0989326 0.176526 0.0989326 0.103782 0.148901 0.0788486 0.172124 0.0886341 0.0863829 0.116913 0.0863829 0.184332 0.103782 0.142859 0.109939 0.148901 0.139181 0.115625 0.142821 0.118245 0.115625 0.116913 0.0779382 0.116913 0.115625 0.118245 0.148901 0.103782 0.0863829 0.0813708 0.116913 0.0886341 0.103782 0.0813708 0.103782 0.172124 0.0863829 0.0863829 0.091923 0.091923 0.142821 0.0813708 0.176526 0.139181 0.203114 0.0813708 0.116913 0.148901 0.0863829 0.118245 0.129973 0.0813708 0.091923 0.115625 0.0813708 0.116913 0.103782 0.184332 0.10127 0.109939 0.115625 0.0788486 0.115625 0.0989326 0.118245 0.148901 0.115625 0.0863829 0.0813708 0.129973 0.185875 0.0738515 0.116913 0.148901 0.0813708 0.10127 0.0886341 0.0738515 0.0788486 0.10127 0.0886341 0.115625 0.185875 0.0738515 0.0738515 0.116913 0.116913 0.115625 0.0788486 0.142859 0.115625 0.214434 0.0738515 0.0788486 0.109939 0.184332 0.109939 0.0788486 0.185875 0.0886341 0.139181 0.116913 0.142859 0.116913 0.184332 0.0738515 0.0813708 0.0989326 0.116913 0.0738515 0.109939 0.118245 0.142821 0.0863829 0.174715 0.0779382 0.0886341 0.129973 0.116913 0.176526 0.0779382 0.0886341 0.116913 0.129973 0.176526 0.172124 0.109939 0.118245 0.118245 0.115625 0.0779382 0.0863829 0.116913 0.129973 0.0813708 0.0788486 0.103782 0.139181 0.184332 0.142859 0.142859 0.129973 0.148901 0.129973 0.142859 0.0738515 0.0863829 0.139181 0.091923 0.0738515 0.116913 0.0788486 0.109939 0.103782 0.118245 0.103782 0.091923 0.176526 0.118245 0.115625 0.0989326 0.109939 0.10127 0.0886341 0.139181 0.129973 0.10127 0.0779382 0.176526 0.0779382 0.115625 0.176526 0.0989326 0.142859 0.0989326 0.139181 0.139181 0.0738515 0.0779382 0.162493 0.103782 0.115625 0.115625 0.162493 0.129973 0.0886341 0.142859 0.0788486 0.103782 0.142859 0.0989326 0.0813708 0.118245 0.091923 0.0779382 0.115625 0.0813708 0.185875 0.174715 0.0788486 0.0886341 0.0989326 0.184332 0.115625 0.185875 0.118245 0.0738515 0.214434 0.0863829 0.091923 0.118245 0.176526 0.091923 0.0788486 0.148901 0.0788486 0.0886341 0.103782 0.10127 0.0989326 
</DataArray>
<DataArray type="Float64" Name="cell variable 8" format="ascii">