<VTKFile type="UnstructuredGrid" version="0.1">
<UnstructuredGrid>
<Piece  NumberOfPoints="    2443" NumberOfCells="     407">
<Points>
<DataArray type="Float64" NumberOfComponents="3" format="ascii">
-1.22409 -6.71372 0.0
-2.33545 -8.61736 0.0
1.28619 -18.6469 0.0
2.52371 -18.3232 0.0
2.6106 -18.1106 0.0
0.487774 -10.2383 0.0
-0.478496 -6.64333 0.0
-0.969577 -6.60216 0.0
22.2314 20.6272 0.0
24.4702 16.8742 0.0
25.2096 16.8933 0.0
30.7599 18.8243 0.0
31.1838 20.2088 0.0
45.0236 -32.3884 0.0
41.9045 -34.667 0.0
47.3097 -37.7122 0.0
48.2 -37.6765 0.0
49.0703 -36.9271 0.0
49.3963 -34.9838 0.0
48.6324 -31.3233 0.0
-6.54156 29.8596 0.0
-9.0575 26.8469 0.0
-0.789662 27.7831 0.0
-0.453872 28.1388 0.0
-1.12745 29.5809 0.0
-3.83767 31.5579 0.0
-27.3262 -37.8113 0.0
-26.5187 -34.897 0.0
-26.6028 -33.9073 0.0
-27.5632 -32.8599 0.0
-31.8342 -32.2888 0.0
-32.3227 -33.2901 0.0
-32.6704 -38.4583 0.0
-30.6345 -38.2357 0.0
21.5587 -34.8433 0.0
16.1862 -36.1788 0.0
14.7881 -40.2801 0.0
17.1914 -39.3335 0.0
22.5042 -35.2467 0.0
8.43719 -1.72988 0.0
8.12459 -4.04809 0.0
8.87233 -5.23122 0.0
15.3494 -2.54219 0.0
15.412 -2.32406 0.0
15.4616 -1.62818 0.0
26.7054 -30.0288 0.0
24.6252 -27.4635 0.0
20.1078 -30.1093 0.0
19.8932 -32.1016 0.0
22.0689 -34.234 0.0
23.0144 -34.6373 0.0
23.7704 -34.6536 0.0
52.0531 8.63266 0.0
52.0865 8.18967 0.0
58.1607 11.2797 0.0
58.1565 15.1426 0.0
57.9178 15.4055 0.0
54.544 15.6728 0.0
-45.2532 4.43049 0.0
-44.5736 6.0671 0.0
-45.5041 8.27447 0.0
-47.5883 9.32905 0.0
-49.7379 9.51455 0.0
-50.2657 8.93208 0.0
-50.609 3.83766 0.0
5.06733 25.9344 0.0
5.408 25.5752 0.0
6.44649 24.6346 0.0
13.4695 23.1626 0.0
13.7113 23.6172 0.0
14.5494 25.8901 0.0
13.2929 26.881 0.0
5.15129 27.1599 0.0
0.0604421 -24.5753 0.0
-0.354234 -25.9599 0.0
-0.0304378 -30.2239 0.0
0.747882 -30.528 0.0
6.40751 -28.5551 0.0
6.9607 -26.7472 0.0
3.98417 -25.7125 0.0
35.1348 42.9745 0.0
34.3391 44.8317 0.0
33.2276 46.3594 0.0
25.8047 50.2975 0.0
25.5185 50.0136 0.0
25.8057 48.5508 0.0
34.7043 41.9176 0.0
-19.662 -23.4954 0.0
-17.079 -23.7399 0.0
-15.3112 -19.0521 0.0
-19.9881 -17.5749 0.0
-20.8022 -19.7004 0.0
-21.6246 -21.9518 0.0
5.9314 60.3853 0.0
5.40606 60.008 0.0
0.925541 54.9579 0.0
0.986899 54.9147 0.0
4.03259 55.8795 0.0
9.0406 59.2259 0.0
10.3475 60.219 0.0
-39.9276 -4.86865 0.0
-39.9367 -4.90506 0.0
-39.1064 -7.68048 0.0
-33.5524 -12.2701 0.0
-32.8616 -12.1077 0.0
-31.9668 -9.93016 0.0
-32.2332 -9.06809 0.0
-49.0287 -33.6445 0.0
-48.3463 -33.8693 0.0
-49.3143 -29.5441 0.0
-49.4948 -29.0532 0.0
-53.0655 -24.8245 0.0
-53.6471 -24.2864 0.0
-54.4755 -26.637 0.0
26.8302 9.73556 0.0
24.9725 8.95889 0.0
25.5747 5.95217 0.0
26.382 5.50673 0.0
31.899 5.93087 0.0
35.2649 6.49856 0.0
35.1325 6.86473 0.0
14.7723 -53.7056 0.0
16.3019 -53.69 0.0
17.2371 -52.1748 0.0
17.9335 -49.7748 0.0
17.7746 -48.6708 0.0
16.5262 -46.589 0.0
14.55 -46.1147 0.0
14.4113 -46.2195 0.0
49.7458 -15.3261 0.0
49.6617 -16.4371 0.0
57.61 -17.7345 0.0
58.4193 -17.4285 0.0
59.0356 -14.0355 0.0
56.072 -12.7995 0.0
53.4085 -13.693 0.0
-56.5132 -4.0847 0.0
-57.0342 0.457384 0.0
-61.1061 -0.329061 0.0
-60.5058 -3.95918 0.0
-59.4294 -5.43915 0.0
-38.3978 29.2791 0.0
-37.792 27.0897 0.0
-34.8469 27.3529 0.0
-33.4992 27.5799 0.0
-33.0128 28.7236 0.0
-32.0958 32.1212 0.0
-32.7077 32.9435 0.0
-38.4676 31.1311 0.0
-32.0506 35.1047 0.0
-32.067 33.7193 0.0
-31.455 32.897 0.0
-28.0561 36.2021 0.0
-25.5451 42.0977 0.0
-25.7873 42.4492 0.0
-26.9907 42.2749 0.0
-20.1537 9.1045 0.0
-16.944 11.9489 0.0
-17.2781 15.4424 0.0
-18.1592 16.0934 0.0
-23.6905 14.5606 0.0
-9.21946 26.5053 0.0
-9.57003 26.1928 0.0
-9.27632 22.7279 0.0
-2.58596 25.345 0.0
-2.18276 25.6774 0.0
-0.951618 27.4414 0.0
5.35443 48.7939 0.0
6.93318 47.9598 0.0
11.5812 50.7021 0.0
6.33975 51.8703 0.0
2.68872 52.3552 0.0
-1.41697 -63.8404 0.0
-0.210826 -63.8513 0.0
0.432973 -58.5552 0.0
0.389691 -54.4168 0.0
0.0337507 -54.2516 0.0
-4.25728 -56.2736 0.0
4.20663 17.5668 0.0
3.82679 17.5731 0.0
0.378504 17.1448 0.0
-2.21883 9.79211 0.0
2.31469 12.4164 0.0
-14.739 37.821 0.0
-18.1876 38.6464 0.0
-23.3524 30.4743 0.0
-22.0003 30.9665 0.0
-14.6235 37.2178 0.0
-40.8919 -42.5389 0.0
-38.6472 -45.4084 0.0
-35.7802 -46.674 0.0
-33.4111 -44.6347 0.0
-34.7287 -41.009 0.0
-35.9158 -40.2436 0.0
-36.8786 -40.1941 0.0
13.5196 -60.2565 0.0
16.1592 -54.9993 0.0
15.9423 -54.3622 0.0
14.4128 -54.3779 0.0
10.2886 -54.678 0.0
7.61712 -56.0307 0.0
-32.3746 28.5824 0.0
-32.861 27.4388 0.0
-30.9238 25.9801 0.0
-26.8302 27.0181 0.0
-25.9506 28.7798 0.0
-25.9191 31.2267 0.0
-26.2924 31.4997 0.0
14.5143 36.1837 0.0
17.9849 34.2622 0.0
18.6968 40.7801 0.0
15.7196 41.4544 0.0
15.0816 41.3101 0.0
14.0054 39.179 0.0
3.82265 -35.8479 0.0
2.4752 -33.9032 0.0
0.499685 -31.1632 0.0
-0.278635 -30.8592 0.0
-1.29584 -31.3908 0.0
-2.23284 -33.4424 0.0
-2.34441 -35.8906 0.0
18.1189 -22.7308 0.0
18.2507 -22.7866 0.0
31.3767 -17.7698 0.0
31.5976 -16.894 0.0
31.0687 -16.3754 0.0
25.9837 -17.886 0.0
19.2935 -20.099 0.0
19.0541 -20.2452 0.0
17.192 -21.8642 0.0
-44.0982 -6.92859 0.0
-42.7298 -5.94503 0.0
-40.8596 -4.45236 0.0
-40.8505 -4.41595 0.0
-40.8665 -4.07417 0.0
-45.9116 -1.99004 0.0
-48.6059 -2.88664 0.0
-48.9209 -3.64109 0.0
-42.5693 -17.9712 0.0
-42.6698 -18.1499 0.0
-41.569 -22.3091 0.0
-40.082 -27.5252 0.0
-38.6656 -27.086 0.0
-38.0537 -23.295 0.0
-45.1678 -25.8812 0.0
-46.6559 -23.9733 0.0
-52.8078 -24.5301 0.0
-49.237 -28.7588 0.0
-39.6299 33.9431 0.0
-39.4029 33.8535 0.0
-37.9041 36.1106 0.0
-37.4722 42.024 0.0
-38.0975 45.8433 0.0
-38.2117 45.8796 0.0
-38.8806 45.8912 0.0
-12.6161 40.517 0.0
-13.916 38.1478 0.0
-13.8004 37.5446 0.0
-13.5126 37.2284 0.0
-8.84477 36.826 0.0
-7.63968 37.3406 0.0
-6.79212 39.458 0.0
-13.5448 -51.284 0.0
-17.5206 -52.1047 0.0
-17.9433 -52.3346 0.0
-17.8632 -53.6933 0.0
-15.0069 -60.263 0.0
-13.8836 -60.3653 0.0
-55.3737 23.8387 0.0
-55.9059 23.5527 0.0
-57.6572 21.015 0.0
-57.3536 16.6596 0.0
-54.1724 16.5525 0.0
-53.9406 17.2829 0.0
48.6691 13.2041 0.0
48.9977 12.8304 0.0
52.2833 17.0622 0.0
47.328 19.9907 0.0
-37.289 -22.4724 0.0
-37.6467 -23.5326 0.0
-38.2586 -27.3237 0.0
-35.8075 -28.2151 0.0
-32.9036 -25.7665 0.0
13.3609 61.3922 0.0
11.0939 60.2243 0.0
9.78697 59.2311 0.0
13.199 55.3197 0.0
14.1388 55.1467 0.0
15.8873 56.7751 0.0
36.4794 4.59639 0.0
35.0868 2.52427 0.0
31.6132 -6.6801 0.0
32.152 -6.41346 0.0
36.2853 -4.33701 0.0
37.6485 4.11103 0.0
19.8482 -13.6194 0.0
17.4705 -14.8777 0.0
18.6246 -19.9035 0.0
18.864 -19.7573 0.0
23.2342 -14.7684 0.0
20.8752 -13.8509 0.0
45.1827 9.80101 0.0
44.9615 7.80883 0.0
51.0077 8.72425 0.0
48.8305 12.1514 0.0
48.502 12.5251 0.0
11.7284 33.4753 0.0
13.0417 34.149 0.0
13.9907 35.9488 0.0
13.4817 38.9442 0.0
10.8839 38.087 0.0
6.99161 34.4365 0.0
30.1065 -28.4743 0.0
27.2021 -30.1749 0.0
24.2671 -34.7996 0.0
25.2358 -35.6115 0.0
28.8485 -35.3937 0.0
31.5156 -32.4082 0.0
52.3751 24.4219 0.0
52.7514 22.1574 0.0
54.4908 18.1365 0.0
60.3342 24.4135 0.0
-50.8503 13.3036 0.0
-52.1155 13.9339 0.0
-57.7635 9.92601 0.0
-55.1482 9.51719 0.0
-50.7934 9.39105 0.0
-50.2657 9.97352 0.0
-24.7372 44.0149 0.0
-24.9812 43.3116 0.0
-24.7389 42.96 0.0
-23.2958 42.7946 0.0
-21.2873 42.5664 0.0
-20.1349 43.8049 0.0
-18.3736 47.5234 0.0
-17.1342 52.5063 0.0
4.98125 -59.8145 0.0
5.28891 -55.9389 0.0
4.04993 -54.4434 0.0
2.5597 -54.1948 0.0
0.829402 -54.2293 0.0
0.872684 -58.3677 0.0
6.85889 -16.7885 0.0
12.441 -15.7946 0.0
11.2797 -12.0782 0.0
10.8708 -11.356 0.0
10.17 -11.113 0.0
-0.236003 27.347 0.0
-1.46714 25.583 0.0
-0.17021 18.9052 0.0
-0.100503 18.9135 0.0
4.17478 25.8387 0.0
4.25874 27.0642 0.0
4.17806 27.2086 0.0
3.36232 27.8522 0.0
0.0997871 27.7027 0.0
34.7126 36.6891 0.0
34.4903 35.6185 0.0
40.5817 29.3553 0.0
41.8497 28.893 0.0
41.6287 30.2079 0.0
38.3259 36.588 0.0
36.0731 38.0099 0.0
-56.704 -18.937 0.0
-55.6004 -19.6477 0.0
-53.3558 -11.6687 0.0
-56.8765 -13.0333 0.0
11.7326 -11.8819 0.0
12.8939 -15.5982 0.0
13.6124 -16.1815 0.0
15.0613 -15.1281 0.0
16.9036 -10.6624 0.0
17.7765 -8.31738 0.0
39.942 -5.33388 0.0
40.4483 -4.1415 0.0
40.1399 4.69835 0.0
38.0187 4.1722 0.0
36.6555 -4.27584 0.0
-40.4661 34.2556 0.0
-39.7879 33.9634 0.0
-39.0386 45.9115 0.0
-39.4101 45.8877 0.0
-40.5504 45.446 0.0
-41.1281 35.5299 0.0
23.4334 -42.3889 0.0
22.3803 -42.8154 0.0
22.8245 -47.5 0.0
27.9758 -46.7924 0.0
27.9693 -46.0517 0.0
27.9538 -45.7342 0.0
-11.526 -26.327 0.0
-11.4614 -27.5728 0.0
-2.94886 -32.9109 0.0
-2.01187 -30.8593 0.0
-8.53632 -25.2201 0.0
-9.57132 -24.518 0.0
-18.0056 28.2538 0.0
-19.914 24.094 0.0
-19.737 23.7385 0.0
-18.0667 22.5082 0.0
-14.9536 24.9301 0.0
-12.723 30.3331 0.0
-17.2201 29.1014 0.0
48.6082 -22.2918 0.0
48.4811 -21.6854 0.0
38.9374 -21.1655 0.0
37.6945 -21.5154 0.0
36.2163 -22.5173 0.0
36.229 -23.4597 0.0
48.4149 -22.5953 0.0
-51.5078 -4.68215 0.0
-50.7451 -4.97534 0.0
-49.6271 -3.27724 0.0
-49.3121 -2.52279 0.0
-51.4449 2.26483 0.0
-53.6333 2.95121 0.0
-55.2454 3.17237 0.0
-3.44682 0.0604164 0.0
-4.44722 1.51388 0.0
-8.23941 -0.877058 0.0
-3.51087 -4.57317 0.0
-1.68938 -5.65331 0.0
-1.43487 -5.54176 0.0
44.2721 21.0592 0.0
44.9959 23.3694 0.0
44.3376 26.2391 0.0
43.1103 26.6393 0.0
39.1565 23.0175 0.0
38.8841 22.4231 0.0
39.1616 21.6206 0.0
-11.3865 -28.0206 0.0
-11.5003 -28.4293 0.0
-5.20321 -36.6384 0.0
-3.59097 -37.5003 0.0
-2.98556 -35.8069 0.0
-2.87399 -33.3586 0.0
-29.7235 9.31342 0.0
-29.6139 7.88368 0.0
-24.284 2.4489 0.0
-22.942 3.37657 0.0
-22.1208 4.37627 0.0
-27.2198 -38.3762 0.0
-30.528 -38.8006 0.0
-29.9206 -44.7184 0.0
-26.936 -42.1352 0.0
-26.6334 -41.6937 0.0
-18.4788 -2.28497 0.0
-14.9854 -1.99018 0.0
-16.6728 1.62292 0.0
-16.9514 1.99643 0.0
-17.9025 2.54458 0.0
-21.2105 4.09655 0.0
-21.3914 3.88716 0.0
-22.2126 2.88747 0.0
-30.6615 0.176275 0.0
-31.7093 3.39637 0.0
-36.2051 4.98453 0.0
-37.6576 5.00185 0.0
-38.3701 4.28155 0.0
-37.9513 1.65158 0.0
-21.1774 -30.3721 0.0
-20.2345 -27.3793 0.0
-20.0512 -24.0015 0.0
-22.0138 -22.4578 0.0
-23.591 -22.6553 0.0
-25.8673 -25.355 0.0
17.009 44.1206 0.0
18.8784 46.9995 0.0
13.1427 46.1526 0.0
[...]
<CellData Scalars="cell variable 4" Vectors="cell vector">
<DataArray type="Float64" NumberOfComponents="3" Name="cell vector" format="ascii">
0 0 0
0 0 0
0 0 0
0 0 0
0 0 0
0 0 0
0 0 0
0 0 0
0 0 0
0 0 0
0 0 0
0 0 0
0 0 0
0 0 0
0 0 0
0 0 0
0 0 0
0 0 0
0 0 0
0 0 0
0 0 0
0 0 0
0 0 0
0 0 0
0 0 0
0 0 0
0 0 0
0 0 0
0 0 0
0 0 0
0 0 0
0 0 0
0 0 0
0 0 0
0 0 0
0 0 0
0 0 0
0 0 0
0 0 0
0 0 0
0 0 0
0 0 0
0 0 0
0 0 0
0 0 0
0 0 0
0 0 0
0 0 0
0 0 0
0 0 0
0 0 0
0 0 0
0 0 0
0 0 0
0 0 0
0 0 0
0 0 0
0 0 0
0 0 0
0 0 0
0 0 0
0 0 0
0 0 0
0 0 0
0 0 0
0 0 0
0 0 0
0 0 0
0 0 0
0 0 0
0 0 0
0 0 0
0 0 0
0 0 0
0 0 0
0 0 0
0 0 0
0 0 0
0 0 0
0 0 0
0 0 0
0 0 0
0 0 0
0 0 0
0 0 0
0 0 0
0 0 0
0 0 0
0 0 0
0 0 0
0 0 0
0 0 0
0 0 0
0 0 0
0 0 0
0 0 0
0 0 0
0 0 0
0 0 0
0 0 0
0 0 0
0 0 0
0 0 0
0 0 0
0 0 0
0 0 0
0 0 0
0 0 0
0 0 0
0 0 0
0 0 0
0 0 0
0 0 0
0 0 0
0 0 0
0 0 0
0 0 0
0 0 0
0 0 0
0 0 0
0 0 0
0 0 0
0 0 0
0 0 0
0 0 0
0 0 0
0 0 0
0 0 0
0 0 0
0 0 0
0 0 0
0 0 0
0 0 0
0 0 0
0 0 0
0 0 0
0 0 0
0 0 0
0 0 0
0 0 0
0 0 0
0 0 0
0 0 0
0 0 0
0 0 0
0 0 0
0 0 0
0 0 0
0 0 0
0 0 0
0 0 0
0 0 0
0 0 0
0 0 0
0 0 0
0 0 0
0 0 0
0 0 0
0 0 0
0 0 0
0 0 0
0 0 0
0 0 0
0 0 0
0 0 0
0 0 0
0 0 0
0 0 0
0 0 0
0 0 0
0 0 0
0 0 0
0 0 0
0 0 0
0 0 0
0 0 0
0 0 0
0 0 0
0 0 0
0 0 0
0 0 0
0 0 0
0 0 0
0 0 0
0 0 0
0 0 0
0 0 0
0 0 0
0 0 0
0 0 0
0 0 0
0 0 0
0 0 0
0 0 0
0 0 0
0 0 0
0 0 0
0 0 0
0 0 0
0 0 0
0 0 0
0 0 0
0 0 0
0 0 0
0 0 0
0 0 0
0 0 0
0 0 0
0 0 0
0 0 0
0 0 0
0 0 0
0 0 0
0 0 0
0 0 0
0 0 0
0 0 0
0 0 0
0 0 0
0 0 0
0 0 0
0 0 0
0 0 0
0 0 0
0 0 0
0 0 0
0 0 0
0 0 0
0 0 0
0 0 0
0 0 0
0 0 0
0 0 0
0 0 0
0 0 0
0 0 0
0 0 0
0 0 0
0 0 0
0 0 0
0 0 0
0 0 0
0 0 0
0 0 0
0 0 0
0 0 0
0 0 0
0 0 0
0 0 0
0 0 0
0 0 0
0 0 0
0 0 0
0 0 0
0 0 0
0 0 0
0 0 0
0 0 0
0 0 0
0 0 0
0 0 0
0 0 0
0 0 0
0 0 0
0 0 0
0 0 0
0 0 0
0 0 0
0 0 0
0 0 0
0 0 0
0 0 0
0 0 0
0 0 0
0 0 0
0 0 0
0 0 0
0 0 0
0 0 0
0 0 0
0 0 0
0 0 0
0 0 0
0 0 0
0 0 0
0 0 0
0 0 0
0 0 0
0 0 0
0 0 0
0 0 0
0 0 0
0 0 0
0 0 0
0 0 0
0 0 0
0 0 0
0 0 0
0 0 0
0 0 0
0 0 0
0 0 0
0 0 0
0 0 0
0 0 0
0 0 0
0 0 0
0 0 0
0 0 0
0 0 0
0 0 0
0 0 0
0 0 0
0 0 0
0 0 0
0 0 0
0 0 0
0 0 0
0 0 0
0 0 0
0 0 0
0 0 0
0 0 0
0 0 0
0 0 0
0 0 0
0 0 0
0 0 0
0 0 0
0 0 0
0 0 0
0 0 0
0 0 0
0 0 0
0 0 0
0 0 0
0 0 0
0 0 0
0 0 0
0 0 0
0 0 0
0 0 0
0 0 0
0 0 0
0 0 0
0 0 0
0 0 0
0 0 0
0 0 0
0 0 0
0 0 0
0 0 0
0 0 0
0 0 0
0 0 0
0 0 0
0 0 0
0 0 0
0 0 0
0 0 0
0 0 0
0 0 0
0 0 0
0 0 0
0 0 0
0 0 0
0 0 0
0 0 0
0 0 0
0 0 0
0 0 0
0 0 0
0 0 0
0 0 0
0 0 0
0 0 0
0 0 0
0 0 0
0 0 0
0 0 0
0 0 0
0 0 0
0 0 0
0 0 0
0 0 0
0 0 0
0 0 0
0 0 0
0 0 0
0 0 0
0 0 0
0 0 0
0 0 0
0 0 0
0 0 0
0 0 0
0 0 0
0 0 0
0 0 0
0 0 0
0 0 0
0 0 0
0 0 0
0 0 0
0 0 0
0 0 0
0 0 0
</DataArray>
<DataArray type="Float64" Name="cell vector length" format="ascii">
0 0 0 0 0 0 0 0 0 0 0 0 0 0 0 0 0 0 0 0 0 0 0 0 0 0 0 0 0 0 0 0 0 0 0 0 0 0 0 0 0 0 0 0 0 0 0 0 0 0 0 0 0 0 0 0 0 0 0 0 0 0 0 0 0 0 0 0 0 0 0 0 0 0 0 0 0 0 0 0 0 0 0 0 0 0 0 0 0 0 0 0 0 0 0 0 0 0 0 0 0 0 0 0 0 0 0 0 0 0 0 0 0 0 0 0 0 0 0 0 0 0 0 0 0 0 0 0 0 0 0 0 0 0 0 0 0 0 0 0 0 0 0 0 0 0 0 0 0 0 0 0 0 0 0 0 0 0 0 0 0 0 0 0 0 0 0 0 0 0 0 0 0 0 0 0 0 0 0 0 0 0 0 0 0 0 0 0 0 0 0 0 0 0 0 0 0 0 0 0 0 0 0 0 0 0 0 0 0 0 0 0 0 0 0 0 0 0 0 0 0 0 0 0 0 0 0 0 0 0 0 0 0 0 0 0 0 0 0 0 0 0 0 0 0 0 0 0 0 0 0 0 0 0 0 0 0 0 0 0 0 0 0 0 0 0 0 0 0 0 0 0 0 0 0 0 0 0 0 0 0 0 0 0 0 0 0 0 0 0 0 0 0 0 0 0 0 0 0 0 0 0 0 0 0 0 0 0 0 0 0 0 0 0 0 0 0 0 0 0 0 0 0 0 0 0 0 0 0 0 0 0 0 0 0 0 0 0 0 0 0 0 0 0 0 0 0 0 0 0 0 0 0 0 0 0 0 0 0 0 0 0 0 0 0 0 0 0 0 0 0 0 0 0 0 0 0 0 0 0 0 0 0 0 0 0 0 0 0 0 0 0 0 0 0 0 0 0 0 0 0 0 0 0 0 0 0 
</DataArray>
<DataArray type="Float64" Name="cell variable 4" format="ascii">
1.11547 1.06245 0.657465 1.07467 0.631062 0.94865 1.11547 0.94865 0.736473 0.8063 1.14226 1.04461 0.790107 1.04461 0.626025 0.919422 0.631062 1.10185 0.789941 0.573608 0.542818 0.99432 0.99432 1.00681 1.07467 0.626025 0.789941 1.14226 0.99432 0.631062 0.789941 0.99432 0.980966 1.04461 1.11547 0.919422 0.919422 0.631062 0.673042 0.763876 0.66381 0.8063 0.848855 0.919422 0.626025 1.10185 1.11547 0.848855 0.980966 0.657465 0.848855 0.8063 0.763876 0.789941 1.11547 1.07467 1.06245 0.542818 1.11547 0.912892 0.673042 0.708918 1.04461 1.07467 0.912892 0.542818 1.12037 0.848855 1.04461 1.00681 0.631062 1.12037 1.00681 0.90618 0.626025 1.04461 1.14226 0.94865 0.90618 1.11547 0.573608 0.708918 1.11547 0.848855 1.11547 0.912892 1.04461 1.10185 1.14226 1.07467 0.790107 0.708918 0.99432 0.626025 0.980966 0.980966 0.763876 0.919422 1.12037 1.11547 1.04461 1.04461 0.919422 0.94865 0.919422 0.919422 0.542818 1.12037 0.573608 0.912892 0.763876 0.790107 0.763876 0.673042 0.912892 1.14226 0.789941 0.657465 1.11547 0.789941 0.626025 1.07467 1.00681 0.94865 0.673042 0.673042 0.66381 1.06245 0.99432 0.790107 0.66381 1.11547 0.789941 1.07467 0.626025 1.06245 0.631062 0.789941 1.04461 0.919422 0.790107 1.00681 1.12037 0.763876 0.542818 0.980966 0.66381 0.99432 0.980966 0.848855 1.04461 0.980966 0.919422 0.919422 1.00681 0.8063 0.912892 1.12037 0.542818 1.06245 1.07467 0.94865 1.04461 1.06245 1.00681 0.763876 0.657465 1.11547 1.11547 1.10185 1.10185 0.919422 1.12037 0.919422 0.848855 0.673042 1.00681 1.00681 0.66381 0.919422 1.12037 1.00681 1.00681 0.657465 1.00681 0.980966 0.763876 1.11547 0.673042 0.790107 1.07467 0.912892 1.07467 0.631062 0.980966 0.789941 0.94865 0.763876 0.8063 0.919422 0.790107 0.90618 0.919422 0.657465 1.12037 0.912892 0.763876 0.90618 0.763876 0.980966 1.07467 1.10185 0.631062 1.06245 0.980966 1.10185 0.980966 0.673042 0.573608 1.07467 1.04461 1.04461 0.790107 1.10185 0.657465 0.8063 0.573608 1.10185 0.912892 0.763876 1.07467 0.90618 0.848855 1.10185 1.04461 0.919422 1.10185 0.912892 0.8063 0.631062 0.99432 0.94865 0.919422 1.11547 0.919422 1.00681 0.90618 0.736473 0.919422 1.07467 1.10185 0.848855 0.626025 1.14226 0.912892 0.763876 1.10185 0.99432 0.657465 0.790107 1.11547 0.99432 1.06245 0.919422 0.626025 0.631062 1.14226 0.912892 0.912892 0.919422 1.11547 0.789941 0.919422 0.542818 1.14226 1.11547 0.94865 0.631062 0.94865 1.11547 0.626025 1.06245 0.8063 0.912892 0.789941 0.912892 0.631062 1.14226 1.10185 1.00681 0.912892 1.14226 0.94865 0.763876 0.790107 0.8063 0.66381 1.12037 0.66381 0.848855 0.912892 0.657465 1.12037 1.06245 0.912892 0.848855 0.657465 0.673042 0.94865 0.90618 0.90618 0.763876 1.12037 1.07467 0.912892 0.848855 1.10185 1.11547 0.980966 0.8063 0.631062 0.789941 0.789941 0.848855 0.763876 0.848855 0.789941 1.14226 0.573608 0.8063 1.04461 1.14226 0.912892 0.708918 0.790107 0.980966 0.90618 0.980966 1.04461 0.657465 0.90618 0.919422 1.00681 0.94865 0.99432 1.06245 0.8063 0.848855 0.99432 1.12037 0.657465 0.626025 0.919422 0.657465 1.00681 0.789941 1.00681 0.8063 0.8063 1.14226 1.12037 0.708918 0.657465 0.919422 0.919422 0.763876 0.848855 1.06245 0.789941 1.11547 0.980966 0.789941 1.00681 1.10185 0.90618 1.04461 1.12037 0.919422 0.673042 0.626025 0.66381 1.11547 1.06245 0.8063 0.631062 0.919422 0.626025 0.90618 1.14226 0.542818 0.626025 1.04461 0.90618 0.657465 0.657465 0.919422 0.66381 1.12037 1.06245 1.06245 1.07467 1.11547 0.673042 0.94865 0.8063 0.912892 1.11547 
</DataArray>
<DataArray type="Float64" Name="cell variable 5" format="ascii">
0.00797274 0.00878122 0.0226112 0.00858434 0.0244954 0.0109898 0.00797274 0.0109898 0.0181031 0.0151488 0.00760594 0.00908091 0.0157662 0.00908091 0.0248813 0.0116913 0.0244954 0.00816951 0.0157727 0.0294962 0.0328244 0.0100133 0.0100133 0.00976872 0.00858434 0.0248813 0.0157727 0.00760594 0.0100133 0.0244954 0.0157727 0.0100133 0.0102849 0.00908091 0.00797274 0.0116913 0.0116913 0.0244954 0.021599 0.016849 0.0221905 0.0151488 0.0136882 0.0116913 0.0248813 0.00816951 0.00797274 0.0136882 0.0102849 0.0226112 0.0136882 0.0151488 0.016849 0.0157727 0.00797274 0.00858434 0.00878122 0.0328244 0.00797274 0.0118572 0.021599 0.0195097 0.00908091 0.00858434 0.0118572 0.0328244 0.00790366 0.0136882 0.00908091 0.00976872 0.0244954 0.00790366 0.00976872 0.0120314 0.0248813 0.00908091 0.00760594 0.0109898 0.0120314 0.00797274 0.0294962 0.0195097 0.00797274 0.0136882 0.00797274 0.0118572 0.00908091 0.00816951 0.00760594 0.00858434 0.0157662 0.0195097 0.0100133 0.0248813 0.0102849 0.0102849 0.016849 0.0116913 0.00790366 0.00797274 0.00908091 0.00908091 0.0116913 0.0109898 0.0116913 0.0116913 0.0328244 0.00790366 0.0294962 0.0118572 0.016849 0.0157662 0.016849 0.021599 0.0118572 0.00760594 0.0157727 0.0226112 0.00797274 0.0157727 0.0248813 0.00858434 0.00976872 0.0109898 0.021599 0.021599 0.0221905 0.00878122 0.0100133 0.0157662 0.0221905 0.00797274 0.0157727 0.00858434 0.0248813 0.00878122 0.0244954 0.0157727 0.00908091 0.0116913 0.0157662 0.00976872 0.00790366 0.016849 0.0328244 0.0102849 0.0221905 0.0100133 0.0102849 0.0136882 0.00908091 0.0102849 0.0116913 0.0116913 0.00976872 0.0151488 0.0118572 0.00790366 0.0328244 0.00878122 0.00858434 0.0109898 0.00908091 0.00878122 0.00976872 0.016849 0.0226112 0.00797274 0.00797274 0.00816951 0.00816951 0.0116913 0.00790366 0.0116913 0.0136882 0.021599 0.00976872 0.00976872 0.0221905 0.0116913 0.00790366 0.00976872 0.00976872 0.0226112 0.00976872 0.0102849 0.016849 0.00797274 0.021599 0.0157662 0.00858434 0.0118572 0.00858434 0.0244954 0.0102849 0.0157727 0.0109898 0.016849 0.0151488 0.0116913 0.0157662 0.0120314 0.0116913 0.0226112 0.00790366 0.0118572 0.016849 0.0120314 0.016849 0.0102849 0.00858434 0.00816951 0.0244954 0.00878122 0.0102849 0.00816951 0.0102849 0.021599 0.0294962 0.00858434 0.00908091 0.00908091 0.0157662 0.00816951 0.0226112 0.0151488 0.0294962 0.00816951 0.0118572 0.016849 0.00858434 0.0120314 0.0136882 0.00816951 0.00908091 0.0116913 0.00816951 0.0118572 0.0151488 0.0244954 0.0100133 0.0109898 0.0116913 0.00797274 0.0116913 0.00976872 0.0120314 0.0181031 0.0116913 0.00858434 0.00816951 0.0136882 0.0248813 0.00760594 0.0118572 0.016849 0.00816951 0.0100133 0.0226112 0.0157662 0.00797274 0.0100133 0.00878122 0.0116913 0.0248813 0.0244954 0.00760594 0.0118572 0.0118572 0.0116913 0.00797274 0.0157727 0.0116913 0.0328244 0.00760594 0.00797274 0.0109898 0.0244954 0.0109898 0.00797274 0.0248813 0.00878122 0.0151488 0.0118572 0.0157727 0.0118572 0.0244954 0.00760594 0.00816951 0.00976872 0.0118572 0.00760594 0.0109898 0.016849 0.0157662 0.0151488 0.0221905 0.00790366 0.0221905 0.0136882 0.0118572 0.0226112 0.00790366 0.00878122 0.0118572 0.0136882 0.0226112 0.021599 0.0109898 0.0120314 0.0120314 0.016849 0.00790366 0.00858434 0.0118572 0.0136882 0.00816951 0.00797274 0.0102849 0.0151488 0.0244954 0.0157727 0.0157727 0.0136882 0.016849 0.0136882 0.0157727 0.00760594 0.0294962 0.0151488 0.00908091 0.00760594 0.0118572 0.0195097 0.0157662 0.0102849 0.0120314 0.0102849 0.00908091 0.0226112 0.0120314 0.0116913 0.00976872 0.0109898 0.0100133 0.00878122 0.0151488 0.0136882 0.0100133 0.00790366 0.0226112 0.0248813 0.0116913 0.0226112 0.00976872 0.0157727 0.00976872 0.0151488 0.0151488 0.00760594 0.00790366 0.0195097 0.0226112 0.0116913 0.0116913 0.016849 0.0136882 0.00878122 0.0157727 0.00797274 0.0102849 0.0157727 0.00976872 0.00816951 0.0120314 0.00908091 0.00790366 0.0116913 0.021599 0.0248813 0.0221905 0.00797274 0.00878122 0.0151488 0.0244954 0.0116913 0.0248813 0.0120314 0.00760594 0.0328244 0.0248813 0.00908091 0.0120314 0.0226112 0.0226112 0.0116913 0.0221905 0.00790366 0.00878122 0.00878122 0.00858434 0.00797274 0.021599 0.0109898 0.0151488 0.0118572 0.00797274 
</DataArray>
<DataArray type="Float64" Name="cell variable 6" format="ascii">
4.32387e-06 5.74138e-06 8.84138e-05 5.3719e-06 0.000110922 1.10661e-05 4.32387e-06 1.10661e-05 4.69278e-05 2.80904e-05 3.76475e-06 6.33494e-06 3.15261e-05 6.33494e-06 0.000115922 1.32528e-05 0.000110922 4.64493e-06 3.156e-05 0.000187165 0.000251962 8.43313e-06 8.43313e-06 7.8448e-06 5.3719e-06 0.000115922 3.156e-05 3.76475e-06 8.43313e-06 0.000110922 3.156e-05 8.43313e-06 9.11938e-06 6.33494e-06 4.32387e-06 1.32528e-05 1.32528e-05 0.000110922 7.76673e-05 3.81646e-05 8.3838e-05 2.80904e-05 2.09522e-05 1.32528e-05 0.000115922 4.64493e-06 4.32387e-06 2.09522e-05 9.11938e-06 8.84138e-05 2.09522e-05 2.80904e-05 3.81646e-05 3.156e-05 4.32387e-06 5.3719e-06 5.74138e-06 0.000251962 4.32387e-06 1.38076e-05 7.76673e-05 5.81379e-05 6.33494e-06 5.3719e-06 1.38076e-05 0.000251962 4.21468e-06 2.09522e-05 6.33494e-06 7.8448e-06 0.000110922 4.21468e-06 7.8448e-06 1.4406e-05 0.000115922 6.33494e-06 3.76475e-06 1.10661e-05 1.4406e-05 4.32387e-06 0.000187165 5.81379e-05 4.32387e-06 2.09522e-05 4.32387e-06 1.38076e-05 6.33494e-06 4.64493e-06 3.76475e-06 5.3719e-06 3.15261e-05 5.81379e-05 8.43313e-06 0.000115922 9.11938e-06 9.11938e-06 3.81646e-05 1.32528e-05 4.21468e-06 4.32387e-06 6.33494e-06 6.33494e-06 1.32528e-05 1.10661e-05 1.32528e-05 1.32528e-05 0.000251962 4.21468e-06 0.000187165 1.38076e-05 3.81646e-05 3.15261e-05 3.81646e-05 7.76673e-05 1.38076e-05 3.76475e-06 3.156e-05 8.84138e-05 4.32387e-06 3.156e-05 0.000115922 5.3719e-06 7.8448e-06 1.10661e-05 7.76673e-05 7.76673e-05 8.3838e-05 5.74138e-06 8.43313e-06 3.15261e-05 8.3838e-05 4.32387e-06 3.156e-05 5.3719e-06 0.000115922 5.74138e-06 0.000110922 3.156e-05 6.33494e-06 1.32528e-05 3.15261e-05 7.8448e-06 4.21468e-06 3.81646e-05 0.000251962 9.11938e-06 8.3838e-05 8.43313e-06 9.11938e-06 2.09522e-05 6.33494e-06 9.11938e-06 1.32528e-05 1.32528e-05 7.8448e-06 2.80904e-05 1.38076e-05 4.21468e-06 0.000251962 5.74138e-06 5.3719e-06 1.10661e-05 6.33494e-06 5.74138e-06 7.8448e-06 3.81646e-05 8.84138e-05 4.32387e-06 4.32387e-06 4.64493e-06 4.64493e-06 1.32528e-05 4.21468e-06 1.32528e-05 2.09522e-05 7.76673e-05 7.8448e-06 7.8448e-06 8.3838e-05 1.32528e-05 4.21468e-06 7.8448e-06 7.8448e-06 8.84138e-05 7.8448e-06 9.11938e-06 3.81646e-05 4.32387e-06 7.76673e-05 3.15261e-05 5.3719e-06 1.38076e-05 5.3719e-06 0.000110922 9.11938e-06 3.156e-05 1.10661e-05 3.81646e-05 2.80904e-05 1.32528e-05 3.15261e-05 1.4406e-05 1.32528e-05 8.84138e-05 4.21468e-06 1.38076e-05 3.81646e-05 1.4406e-05 3.81646e-05 9.11938e-06 5.3719e-06 4.64493e-06 0.000110922 5.74138e-06 9.11938e-06 4.64493e-06 9.11938e-06 7.76673e-05 0.000187165 5.3719e-06 6.33494e-06 6.33494e-06 3.15261e-05 4.64493e-06 8.84138e-05 2.80904e-05 0.000187165 4.64493e-06 1.38076e-05 3.81646e-05 5.3719e-06 1.4406e-05 2.09522e-05 4.64493e-06 6.33494e-06 1.32528e-05 4.64493e-06 1.38076e-05 2.80904e-05 0.000110922 8.43313e-06 1.10661e-05 1.32528e-05 4.32387e-06 1.32528e-05 7.8448e-06 1.4406e-05 4.69278e-05 1.32528e-05 5.3719e-06 4.64493e-06 2.09522e-05 0.000115922 3.76475e-06 1.38076e-05 3.81646e-05 4.64493e-06 8.43313e-06 8.84138e-05 3.15261e-05 4.32387e-06 8.43313e-06 5.74138e-06 1.32528e-05 0.000115922 0.000110922 3.76475e-06 1.38076e-05 1.38076e-05 1.32528e-05 4.32387e-06 3.156e-05 1.32528e-05 0.000251962 3.76475e-06 4.32387e-06 1.10661e-05 0.000110922 1.10661e-05 4.32387e-06 0.000115922 5.74138e-06 2.80904e-05 1.38076e-05 3.156e-05 1.38076e-05 0.000110922 3.76475e-06 4.64493e-06 7.8448e-06 1.38076e-05 3.76475e-06 1.10661e-05 3.81646e-05 3.15261e-05 2.80904e-05 8.3838e-05 4.21468e-06 8.3838e-05 2.09522e-05 1.38076e-05 8.84138e-05 4.21468e-06 5.74138e-06 1.38076e-05 2.09522e-05 8.84138e-05 7.76673e-05 1.10661e-05 1.4406e-05 1.4406e-05 3.81646e-05 4.21468e-06 5.3719e-06 1.38076e-05 2.09522e-05 4.64493e-06 4.32387e-06 9.11938e-06 2.80904e-05 0.000110922 3.156e-05 3.156e-05 2.09522e-05 3.81646e-05 2.09522e-05 3.156e-05 3.76475e-06 0.000187165 2.80904e-05 6.33494e-06 3.76475e-06 1.38076e-05 5.81379e-05 3.15261e-05 9.11938e-06 1.4406e-05 9.11938e-06 6.33494e-06 8.84138e-05 1.4406e-05 1.32528e-05 7.8448e-06 1.10661e-05 8.43313e-06 5.74138e-06 2.80904e-05 2.09522e-05 8.43313e-06 4.21468e-06 8.84138e-05 0.000115922 1.32528e-05 8.84138e-05 7.8448e-06 3.156e-05 7.8448e-06 2.80904e-05 2.80904e-05 3.76475e-06 4.21468e-06 5.81379e-05 8.84138e-05 1.32528e-05 1.32528e-05 3.81646e-05 2.09522e-05 5.74138e-06 3.156e-05 4.32387e-06 9.11938e-06 3.156e-05 7.8448e-06 4.64493e-06 1.4406e-05 6.33494e-06 4.21468e-06 1.32528e-05 7.76673e-05 0.000115922 8.3838e-05 4.32387e-06 5.74138e-06 2.80904e-05 0.000110922 1.32528e-05 0.000115922 1.4406e-05 3.76475e-06 0.000251962 0.000115922 6.33494e-06 1.4406e-05 8.84138e-05 8.84138e-05 1.32528e-05 8.3838e-05 4.21468e-06 5.74138e-06 5.74138e-06 5.3719e-06 4.32387e-06 7.76673e-05 1.10661e-05 2.80904e-05 1.38076e-05 4.32387e-06 
</DataArray>
<DataArray type="Float64" Name="cell variable 7" format="ascii">
0.0788486 0.0886341 0.176526 0.0863829 0.184332 0.109939 0.0788486 0.109939 0.15552 0.139181 0.0738515 0.091923 0.142821 0.091923 0.185875 0.115625 0.184332 0.0813708 0.142859 0.203114 0.214434 0.10127 0.10127 0.0989326 0.0863829 0.185875 0.142859 0.0738515 0.10127 0.184332 0.142859 0.10127 0.103782 0.091923 0.0788486 0.115625 0.115625 0.184332 0.172124 0.148901 0.174715 0.139181 0.129973 0.115625 0.185875 0.0813708 0.0788486 0.129973 0.103782 0.176526 0.129973 0.139181 0.148901 0.142859 0.0788486 0.0863829 0.0886341 0.214434 0.0788486 0.116913 0.172124 0.162493 0.091923 0.0863829 0.116913 0.214434 0.0779382 0.129973 0.091923 0.0989326 0.184332 0.0779382 0.0989326 0.118245 0.185875 0.091923 0.0738515 0.109939 0.118245 0.0788486 0.203114 0.162493 0.0788486 0.129973 0.0788486 0.116913 0.091923 0.0813708 0.0738515 0.0863829 0.142821 0.162493 0.10127 0.185875 0.103782 0.103782 0.148901 0.115625 0.0779382 0.0788486 0.091923 0.091923 0.115625 0.109939 0.115625 0.115625 0.214434 0.0779382 0.203114 0.116913 0.148901 0.142821 0.148901 0.172124 0.116913 0.0738515 0.142859 0.176526 0.0788486 0.142859 0.185875 0.0863829 0.0989326 0.109939 0.172124 0.172124 0.174715 0.0886341 0.10127 0.142821 0.174715 0.0788486 0.142859 0.0863829 0.185875 0.0886341 0.184332 0.142859 0.091923 0.115625 0.142821 0.0989326 0.0779382 0.148901 0.214434 0.103782 0.174715 0.10127 0.103782 0.129973 0.091923 0.103782 0.115625 0.115625 0.0989326 0.139181 0.116913 0.0779382 0.214434 0.0886341 0.0863829 0.109939 0.091923 0.0886341 0.0989326 0.148901 0.176526 0.0788486 0.0788486 0.0813708 0.0813708 0.115625 0.0779382 0.115625 0.129973 0.172124 0.0989326 0.0989326 0.174715 0.115625 0.0779382 0.0989326 0.0989326 0.176526 0.0989326 0.103782 0.148901 0.0788486 0.172124 0.142821 0.0863829 0.116913 0.0863829 0.184332 0.103782 0.142859 0.109939 0.148901 0.139181 0.115625 0.142821 0.118245 0.115625 0.176526 0.0779382 0.116913 0.148901 0.118245 0.148901 0.103782 0.0863829 0.0813708 0.184332 0.0886341 0.103782 0.0813708 0.103782 0.172124 0.203114 0.0863829 0.091923 0.091923 0.142821 0.0813708 0.176526 0.139181 0.203114 0.0813708 0.116913 0.148901 0.0863829 0.118245 0.129973 0.0813708 0.091923 0.115625 0.0813708 0.116913 0.139181 0.184332 0.10127 0.109939 0.115625 0.0788486 0.115625 0.0989326 0.118245 0.15552 0.115625 0.0863829 0.0813708 0.129973 0.185875 0.0738515 0.116913 0.148901 0.0813708 0.10127 0.176526 0.142821 0.0788486 0.10127 0.0886341 0.115625 0.185875 0.184332 0.0738515 0.116913 0.116913 0.115625 0.0788486 0.142859 0.115625 0.214434 0.0738515 0.0788486 0.109939 0.184332 0.109939 0.0788486 0.185875 0.0886341 0.139181 0.116913 0.142859 0.116913 0.184332 0.0738515 0.0813708 0.0989326 0.116913 0.0738515 0.109939 0.148901 0.142821 0.139181 0.174715 0.0779382 0.174715 0.129973 0.116913 0.176526 0.0779382 0.0886341 0.116913 0.129973 0.176526 0.172124 0.109939 0.118245 0.118245 0.148901 0.0779382 0.0863829 0.116913 0.129973 0.0813708 0.0788486 0.103782 0.139181 0.184332 0.142859 0.142859 0.129973 0.148901 0.129973 0.142859 0.0738515 0.203114 0.139181 0.091923 0.0738515 0.116913 0.162493 0.142821 0.103782 0.118245 0.103782 0.091923 0.176526 0.118245 0.115625 0.0989326 0.109939 0.10127 0.0886341 0.139181 0.129973 0.10127 0.0779382 0.176526 0.185875 0.115625 0.176526 0.0989326 0.142859 0.0989326 0.139181 0.139181 0.0738515 0.0779382 0.162493 0.176526 0.115625 0.115625 0.148901 0.129973 0.0886341 0.142859 0.0788486 0.103782 0.142859 0.0989326 0.0813708 0.118245 0.091923 0.0779382 0.115625 0.172124 0.185875 0.174715 0.0788486 0.0886341 0.139181 0.184332 0.115625 0.185875 0.118245 0.0738515 0.214434 0.185875 0.091923 0.118245 0.176526 0.176526 0.115625 0.174715 0.0779382 0.0886341 0.0886341 0.0863829 0.0788486 0.172124 0.109939 0.139181 0.116913 0.0788486 
</DataArray>