<VTKFile type="UnstructuredGrid" version="0.1">
<UnstructuredGrid>
<Piece  NumberOfPoints="    3358" NumberOfCells="    2470">
<Points>
<DataArray type="Float64" NumberOfComponents="3" format="ascii">
-44.8563 -34.7905 0 
6.65792 7.13438 0 
37.0192 -4.39306 0 
0.953367 -46.2043 0 
-19.8252 35.641 0 
-49.8877 18.9996 0 
5.62798 -32.2859 0 
15.8415 -60.0198 0 
-38.7365 48.1707 0 
56.3712 -20.2328 0 
-46.8196 10.9781 0 
34.587 -16.6891 0 
-10.2892 30.152 0 
4.93542 -47.8444 0 
50.9295 18.7878 0 
-7.84684 -30.8646 0 
-1.80815 -63.2406 0 
60.8404 5.99951 0 
-21.3653 -28.7149 0 
22.9287 -14.6407 0 
17.8104 44.3835 0 
32.3372 38.4432 0 
-37.4755 -31.1021 0 
4.04437 0.806641 0 
-27.5373 53.7212 0 
40.7907 -7.39312 0 
-24.2914 -44.4701 0 
-20.3385 -40.8852 0 
-42.0241 11.2965 0 
-47.3582 -10.0005 0 
19.6182 36.4117 0 
33.2116 16.9848 0 
-29.9403 -48.0187 0 
-24.6405 47.0998 0 
-21.3557 -10.0947 0 
-42.1093 -31.5008 0 
-10.684 26.5005 0 
-6.69033 37.6296 0 
26.1092 42.1853 0 
-6.86874 -49.5056 0 
29.4269 25.8084 0 
-16.6192 -59.7091 0 
28.6266 -47.3899 0 
-32.3095 50.0301 0 
12.9898 36.1211 0 
49.7328 -15.1391 0 
-9.53169 -1.07223 0 
-20.4081 25.1338 0 
4.71775 16.3377 0 
-3.86544 -31.9584 0 
31.1818 -26.3881 0 
18.6079 55.4305 0 
-18.4806 -7.02208 0 
34.3411 -31.3171 0 
-18.8952 -17.9409 0 
-32.884 4.95193 0 
-7.19298 -39.017 0 
40.7598 40.3427 0 
10.5841 -20.6172 0 
12.8924 40.4824 0 
-19.8886 25.1592 0 
41.3993 -28.9194 0 
36.8558 -36.9244 0 
30.2003 -19.5532 0 
-45.5203 24.4943 0 
6.62096 43.1694 0 
18.8173 23.4211 0 
-49.6503 -20.9948 0 
18.1869 -12.9676 0 
41.5709 -19.9606 0 
11.1337 -3.0538 0 
-40.8611 -30.0594 0 
32.4483 45.597 0 
-23.7051 54.3113 0 
55.182 14.6031 0 
-35.6315 -14.9178 0 
18.0329 -20.0863 0 
-33.7803 34.7672 0 
19.3753 -35.0422 0 
0.680769 58.209 0 
-54.4621 -5.14648 0 
23.8575 -29.069 0 
-7.90307 -8.4927 0 
-50.2358 -12.9456 0 
41.2748 20.8148 0 
45.2208 32.7572 0 
-52.4202 -11.7567 0 
-0.865625 43.9695 0 
54.9966 22.4917 0 
-30.4789 45.4441 0 
1.60552 -37.0604 0 
-21.8488 -21.758 0 
18.7633 24.5132 0 
-52.3118 -27.013 0 
23.2752 -29.6049 0 
29.207 -52.9916 0 
22.8359 -1.7427 0 
-16.0447 30.781 0 
-13.2461 56.9522 0 
9.16366 -27.3335 0 
16.737 51.2906 0 
-39.142 16.8663 0 
38.2503 10.1615 0 
-49.6896 5.69924 0 
48.5352 -14.0553 0 
-10.783 -1.15647 0 
-48.4586 -3.72735 0 
23.5354 -2.0519 0 
-55.5935 16.6167 0 
-40.8786 6.70413 0 
59.7118 15.9691 0 
-13.4797 9.82613 0 
-22.382 -40.3125 0 
19.6826 30.7341 0 
36.5742 -14.877 0 
58.6736 3.14364 0 
-24.6214 -22.1003 0 
4.85476 -19.0201 0 
38.5078 -40.9137 0 
30.0165 -3.75783 0 
24.4099 6.45068 0 
-7.3056 53.1213 0 
23.7308 -41.7022 0 
-46.2418 -17.8195 0 
10.6305 -46.1092 0 
-32.4628 37.0249 0 
-11.5504 -16.6867 0 
34.6459 -31.0121 0 
24.1041 44.4356 0 
7.19563 -40.8334 0 
6.50914 55.8869 0 
-17.1397 -1.88781 0 
-34.5976 -25.7107 0 
-10.0764 -13.7459 0 
52.3209 30.4448 0 
-33.9056 39.2157 0 
25.9479 -4.41753 0 
45.2802 -27.2811 0 
-37.5821 -5.92 0 
-20.2462 35.1935 0 
-14.5691 -60.6512 0 
16.5991 56.7795 0 
-18.1463 -53.7775 0 
-4.31289 12.2118 0 
39.4081 36.6284 0 
2.99715 25.1699 0 
15.034 31.1341 0 
17.7215 -19.8176 0 
33.2016 17.5785 0 
10.3978 32.7969 0 
-52.624 18.558 0 
-45.8369 -24.0305 0 
48.684 26.1174 0 
36.8699 -50.2206 0 
1.48252 57.3999 0 
13.066 -49.4928 0 
7.07795 15.7094 0 
15.2829 9.82314 0 
-44.8622 -8.47312 0 
-2.64104 -56.562 0 
-63.5974 4.69677 0 
-10.8558 -11.5183 0 
38.0143 47.2943 0 
-36.0136 29.2254 0 
-43.5503 -24.9345 0 
47.6244 -32.75 0 
20.2873 25.7126 0 
13.063 -14.2931 0 
-33.5643 -38.3771 0 
-13.5489 -19.9191 0 
43.0886 16.5002 0 
-12.4573 42.7798 0 
-27.702 11.7014 0 
40.8397 10.8391 0 
11.9053 58.2254 0 
-22.9379 31.2447 0 
-10.7001 20.0792 0 
-24.9256 46.9241 0 
18.9671 23.0915 0 
10.9744 -6.21864 0 
43.6647 31.9567 0 
-32.0782 -16.038 0 
-36.0686 17.3452 0 
-2.71681 -39.5996 0 
-34.0706 39.4577 0 
36.3661 -21.4621 0 
38.2708 -31.655 0 
8.48157 22.9541 0 
-27.5045 38.0801 0 
-21.5687 -9.4611 0 
37.9511 0.475873 0 
54.7396 3.23901 0 
-16.0512 -48.5387 0 
-17.2814 -54.5881 0 
43.9666 30.4701 0 
23.1114 -14.8804 0 
32.5181 28.387 0 
-14.8679 8.75889 0 
42.7133 -15.2822 0 
-41.8275 34.6432 0 
35.5272 -19.7592 0 
23.145 -1.88808 0 
-12.1708 8.83021 0 
-17.0837 35.8373 0 
-9.889 -24.0797 0 
-12.9577 57.1644 0 
19.503 49.5332 0 
-10.6728 27.9673 0 
-1.65286 -4.10075 0 
-28.7017 14.7867 0 
17.2327 -44.1855 0 
40.5915 10.739 0 
36.2861 27.9604 0 
0.664015 37.4543 0 
-23.2365 54.4025 0 
-17.3447 -36.1977 0 
45.867 -27.1416 0 
54.924 28.952 0 
13.4364 49.0296 0 
58.6003 -11.5932 0 
-11.0608 14.9017 0 
-20.4143 2.84217 0 
29.1515 -37.1617 0 
-56.7364 -22.0841 0 
9.7306 19.9718 0 
14.3373 -25.8196 0 
35.4849 43.5362 0 
-2.90796 40.0299 0 
33.3277 -25.2817 0 
31.0055 -32.9844 0 
-41.1291 -18.9613 0 
12.5064 -1.92708 0 
-50.7489 2.58956 0 
-2.38273 -39.9736 0 
-42.9224 -16.103 0 
15.5618 -30.1259 0 
-37.4049 -8.87261 0 
-7.29507 4.76612 0 
-18.8845 8.69081 0 
-15.9899 -13.3115 0 
23.1763 -42.7903 0 
-6.72082 -49.0474 0 
-22.6094 39.6945 0 
-29.9802 -1.43223 0 
17.0393 -8.84762 0 
3.91889 64.0523 0 
1.75394 10.3624 0 
-3.5829 -16.6521 0 
-7.31582 14.257 0 
55.2468 4.41505 0 
53.5199 -4.86659 0 
36.8925 30.5571 0 
-42.8048 -46.5211 0 
61.0388 12.7389 0 
5.39249 -15.4152 0 
28.9456 -29.3232 0 
-22.1611 -5.05715 0 
7.81235 -24.2906 0 
20.7195 -2.23876 0 
11.5873 -38.58 0 
-16.0633 -25.599 0 
26.4263 -55.7388 0 
-20.4511 12.3398 0 
31.8853 -25.5792 0 
10.1488 -53.9864 0 
35.7424 24.7034 0 
-57.0386 6.57899 0 
0.619036 33.1404 0 
39.6177 -38.8554 0 
39.8182 25.5051 0 
-53.1008 -19.7065 0 
25.9303 35.8675 0 
-18.233 -29.4677 0 
-48.1041 -33.3599 0 
8.64941 50.4652 0 
15.9188 -52.2871 0 
-13.6444 56.5534 0 
-19.2746 15.5331 0 
-14.756 -31.0755 0 
-52.0676 -26.4475 0 
61.2047 -7.76798 0 
-27.102 -0.0814648 0 
-54.1674 -26.3211 0 
28.3538 25.1229 0 
20.3571 -57.3057 0 
-43.2364 22.6899 0 
-42.4071 11.4495 0 
19.4658 -48.0026 0 
56.3134 -21.0845 0 
30.4593 4.5652 0 
-23.1918 -9.27587 0 
-57.8446 -2.78144 0 
-2.64361 12.8984 0 
-39.9229 -18.9488 0 
49.6772 15.6954 0 
31.8568 -6.47568 0 
25.1433 53.9521 0 
-1.63097 19.6057 0 
-44.0179 -14.2281 0 
-3.93417 -21.5623 0 
49.113 -2.04345 0 
-48.713 32.5687 0 
40.4697 -9.86869 0 
-5.03931 33.5778 0 
3.04515 31.5893 0 
51.1755 28.55 0 
-30.5652 45.9741 0 
-45.4918 35.2038 0 
25.4072 16.6427 0 
15.9743 18.6346 0 
-61.1002 13.6429 0 
18.5365 -37.7243 0 
-2.96305 50.0466 0 
-31.1016 -26.6363 0 
-54.4692 9.62221 0 
54.6752 -8.9548 0 
7.14087 -57.2731 0 
-15.3924 46.7133 0 
-58.4412 -14.1209 0 
44.0115 -40.0839 0 
-42.9134 -46.1472 0 
-11.4225 57.9881 0 
-50.4197 30.4589 0 
-35.3772 -42.685 0 
34.5751 23.1664 0 
-50.3004 -30.7497 0 
40.7994 -7.75026 0 
-41.7012 -42.2755 0 
54.253 -27.8139 0 
-17.8498 -0.464848 0 
12.0017 -7.70753 0 
-22.9992 39.6634 0 
-27.5969 -21.9417 0 
44.3912 6.16686 0 
54.344 20.6398 0 
-54.5964 13.2279 0 
-34.0898 -22.7541 0 
-32.5754 20.2385 0 
-29.514 -4.05822 0 
25.1183 -39.1377 0 
-30.4783 18.6323 0 
-43.1156 42.2053 0 
15.2088 -27.6314 0 
50.7329 18.5126 0 
-34.8709 -34.2466 0 
-12.6876 38.9124 0 
-1.60249 12.5832 0 
-38.1754 -4.73506 0 
-7.18246 3.91278 0 
-13.567 -34.3909 0 
-20.8544 24.6224 0 
-9.43078 -24.2341 0 
-46.3168 25.601 0 
-35.5692 -43.6734 0 
-42.48 34.0584 0 
-14.1352 23.927 0 
-28.8491 15.8739 0 
49.4753 34.7398 0 
46.6439 -25.4693 0 
-26.0468 30.8015 0 
17.2521 -59.5865 0 
-41.1445 45.5787 0 
-30.3188 26.4619 0 
-39.002 38.2292 0 
-25.9347 -30.4332 0 
-32.8187 -33.0027 0 
-7.12598 25.0425 0 
30.7814 19.3189 0 
34.834 12.4185 0 
-0.177064 -0.444275 0 
-0.283954 -13.661 0 
-13.3859 -32.7386 0 
-42.2189 -0.596499 0 
13.9886 36.9126 0 
2.29105 -13.1113 0 
-49.8315 -20.1587 0 
21.7416 -24.7881 0 
0.141012 -23.5244 0 
-8.19056 7.35818 0 
-27.5705 -49.9201 0 
-40.3072 5.5253 0 
-17.8475 16.9225 0 
-48.0559 21.2951 0 
-17.802 -44.7377 0 
-45.1517 24.3273 0 
-6.22602 -62.2361 0 
41.9821 42.9238 0 
-43.9518 -36.5204 0 
-6.18558 22.1756 0 
27.2335 48.699 0 
36.7681 -10.4097 0 
-4.41075 2.80167 0 
12.9182 -44.0588 0 
49.6227 -31.1083 0 
48.0588 -31.903 0 
-25.2729 1.16229 0 
-32.2981 -16.4993 0 
47.7781 39.3197 0 
-55.5175 -10.0288 0 
-3.39766 49.7956 0 
24.5929 -17.4894 0 
47.846 23.4596 0 
30.5443 -13.9035 0 
-14.9747 -49.394 0 
-36.8078 30.4159 0 
-32.3709 -0.026109 0 
-11.3406 -45.5943 0 
-15.3923 8.64986 0 
21.5334 54.9287 0 
7.41164 14.6053 0 
4.8281 42.5969 0 
-53.9267 24.3771 0 
18.8743 12.2064 0 
-43.6162 -1.45386 0 
-23.4701 -33.9328 0 
40.8171 -36.6879 0 
11.7442 53.7458 0 
-46.9523 -27.3786 0 
-28.9735 -4.99016 0 
24.2423 -21.3916 0 
21.5246 34.112 0 
43.6779 32.1284 0 
-26.944 -22.4615 0 
41.3183 -17.7371 0 
27.5939 11.9945 0 
26.3821 41.397 0 
-45.2276 40.2282 0 
16.7118 44.4962 0 
-23.8745 19.7152 0 
4.99835 10.1418 0 
11.8341 -18.9739 0 
33.4693 -45.6582 0 
-28.2845 9.45572 0 
36.2729 35.372 0 
-13.5544 -0.922961 0 
-37.9151 -5.37507 0 
-27.86 -26.3485 0 
44.5355 -41.2594 0 
-13.7552 21.0223 0 
-12.2157 51.1869 0 
-19.5004 45.2063 0 
49.9435 -19.4315 0 
17.3787 -34.9608 0 
28.4399 4.93105 0 
-6.92644 -52.5295 0 
-16.0689 -13.7183 0 
-42.6134 -16.5058 0 
-33.872 -33.902 0 
-50.6408 -13.3044 0 
1.99662 -57.7968 0 
-7.13826 -53.1784 0 
30.9138 -4.52119 0 
-45.2516 15.5407 0 
2.0104 24.5822 0 
-8.18914 -30.6472 0 
11.2242 -60.8402 0 
-24.7865 -35.4448 0 
-54.3765 15.9679 0 
-5.66128 58.8134 0 
12.7223 6.23587 0 
-30.8991 26.068 0 
-34.8299 -35.2283 0 
23.0513 27.5875 0 
32.7991 46.3313 0 
6.09201 52.3321 0 
7.78043 -15.4739 0 
-23.6177 30.6115 0 
-45.2655 -12.9558 0 
10.9736 -39.0925 0 
24.1469 -45.7778 0 
-33.4605 -38.2761 0 
4.48696 -33.4105 0 
-25.4187 -38.2956 0 
-21.0412 56.0059 0 
-8.33455 -37.9513 0 
49.0418 -10.4366 0 
0.264532 -14.052 0 
24.7804 -17.0037 0 
-2.2983 45.2863 0 
47.3591 -12.9787 0 
8.62407 22.7855 0 
-21.7756 -50.5762 0 
8.61801 -13.152 0 
-6.77582 -4.25157 0 
-23.2225 -45.3865 0 
-5.27961 -3.98238 0 
-61.1318 8.6653 0 
18.2792 -5.62544 0 
3.13518 -8.82661 0 
3.49309 48.3297 0 
14.2006 0.944599 0 
-22.7232 -50.5443 0 
[...]
<CellData Scalars="wall variable 0">
<DataArray type="Float64" Name="wall length" format="ascii">
3.20824 6.45942 4.38199 1.3442 3.48033 1.01978 4.2058 0.643617 5.65981 2.89056 7.83299 4.26703 4.69538 1.48759 4.68116 3.87912 1.72225 1.61492 1.70419 3.87141 2.90203 5.49033 1.74596 2.76289 1.88957 4.16593 1.09024 1.08995 0.538452 8.17467 4.16593 4.06708 3.14048 6.64226 3.35237 5.41218 3.89648 0.633758 4.0686 5.64246 1.41651 5.25063 5.63853 3.82197 5.2958 3.98837 3.82432 2.12239 0.985055 5.27081 0.569842 5.06302 0.688311 6.89231 1.56273 2.78556 4.04806 0.951172 2.20718 0.861097 7.532 4.61105 0.951172 3.40112 2.69819 5.68233 2.876 7.32305 2.19298 4.10436 1.16991 2.95037 3.00994 1.25169 3.63316 3.04058 5.54548 2.60783 5.51167 3.59368 4.30023 1.2771 2.36417 1.01563 5.09116 2.44833 7.14731 1.8362 2.57864 1.52453 1.62859 3.06041 6.81295 3.26014 6.22827 6.52905 1.78123 0.318446 3.56862 3.25336 2.85299 0.346414 7.31578 2.81866 2.43774 1.81353 4.1753 7.22893 1.50507 2.24169 2.67021 7.58187 0.719186 10.3439 1.11986 6.58355 0.356622 3.12662 3.82586 0.87495 1.31768 2.27359 6.10666 4.04489 2.63109 4.53918 4.56715 4.54353 1.7114 7.22811 4.83021 1.88524 1.06528 2.70667 5.69052 1.72269 1.80434 1.96252 5.33063 6.82056 1.58944 5.19772 0.862311 2.61303 1.72269 0.22288 6.44482 3.99656 0.714212 3.43937 1.74485 2.46733 4.76791 0.37221 3.62314 1.9158 0.447763 4.74794 5.41218 1.44804 0.563642 7.01609 0.643617 3.62793 0.411939 1.3442 4.55102 2.61833 7.1503 2.09476 4.05609 2.18483 0.177631 4.78702 0.933433 4.87405 1.43577 9.65872 1.55188 2.05019 6.72591 2.56878 0.831657 2.61628 2.56678 1.60317 0.924233 1.04326 6.93377 2.24169 0.144769 0.132527 4.79336 1.99644 1.96562 0.231938 1.52339 6.94669 0.423673 0.522185 3.98944 5.76875 3.56168 2.39665 7.80409 3.38298 4.74979 2.5137 1.43932 1.2442 4.87405 8.85076 4.1339 7.00268 0.529792 6.09293 0.186348 0.880342 2.7948 5.09116 6.69452 1.82827 5.54409 1.2771 7.42475 3.53356 5.06925 4.99877 1.19214 4.9602 3.673 6.32693 4.04489 1.87621 1.14576 7.437 0.378011 0.502632 1.05962 3.24232 4.86701 0.948607 1.74515 4.26778 1.20405 3.12305 2.25688 0.948607 1.07195 3.82197 3.9046 0.844282 4.00708 1.83971 2.13132 6.30986 4.67325 0.637885 4.51004 1.12255 8.1331 2.9358 4.35761 0.484183 1.27447 2.98161 5.07788 0.754014 4.02001 3.36639 2.94874 7.09921 0.876571 5.30069 0.719865 5.40125 0.177631 9.09457 0.200868 7.87134 1.83971 4.34875 0.94582 3.08734 2.26145 1.84987 4.71049 2.05488 1.70419 2.57433 0.269983 2.42659 3.54304 8.45324 8.76 1.32604 0.533201 0.495181 7.532 2.16373 2.18483 2.44215 3.78791 0.11915 5.44658 1.32155 5.18031 1.14437 8.55158 1.0594 5.27643 1.8362 1.21811 2.90833 1.96444 5.83887 2.42741 1.68903 2.30636 0.615195 5.3488 3.96277 2.01685 4.39364 0.519192 3.45091 2.79066 0.916653 4.83021 0.539427 4.95121 2.78714 2.95326 5.05297 1.60317 8.06013 0.34291 4.88118 1.55295 1.98967 1.63934 0.392162 2.13132 7.87134 5.25063 2.46421 0.578078 4.81926 3.69579 3.15265 0.911924 2.72527 6.30737 3.3981 1.58359 1.63128 3.28433 2.67205 7.31578 0.279942 1.7135 3.3981 2.81823 0.470127 1.81353 2.40787 0.818511 1.99007 4.50421 1.02856 8.01535 4.67325 0.957358 3.41746 3.34976 5.15217 2.21158 9.24444 2.56878 0.886901 1.44022 5.16657 1.32466 1.03317 4.97556 4.01451 3.03558 2.16792 4.01493 0.438918 1.30167 3.51416 4.4209 0.926177 1.80544 6.64047 1.0845 6.37623 3.00994 1.8425 1.463 2.77687 0.984105 4.59567 4.54571 3.98365 3.27427 3.01628 0.621089 0.70432 6.34257 1.67537 1.03317 7.03391 0.662664 7.35198 8.63397 1.10987 0.517287 2.97751 1.38743 7.00199 0.802395 0.59899 1.99007 4.03295 3.7797 1.03318 2.46733 5.16485 5.22302 1.10695 3.10803 2.85299 3.42442 5.34511 7.64928 6.28717 0.36016 4.49189 0.294588 6.11459 3.75885 2.42741 2.28317 3.2552 0.369044 3.58189 3.60737 2.39133 6.55684 0.70432 5.00245 3.57594 1.07187 6.52452 1.35179 2.44746 2.67796 6.08701 0.369044 8.95906 0.624535 2.61959 0.844774 7.45653 2.13242 3.83889 0.978607 6.30986 0.392162 3.87848 1.56571 0.551048 1.67996 4.80292 0.584736 3.93188 0.958013 7.93783 2.93363 7.72116 0.414927 0.880342 8.33564 0.502632 1.67643 2.24074 0.927849 3.03558 0.570099 2.82889 5.53318 2.16792 0.927849 2.52136 1.75409 3.7553 1.19632 6.32548 1.09024 6.64226 0.65291 0.249302 2.23946 2.23208 2.60015 2.25418 1.94568 4.27905 4.26705 7.04161 2.09646 2.19298 0.243874 0.685381 3.54304 3.69376 7.4148 1.88957 5.24175 2.56841 0.847872 1.67996 0.275806 4.06708 4.81926 8.78974 0.796758 5.81651 1.77512 1.94523 2.61628 8.12155 0.984105 9.19388 0.200072 7.54999 0.842711 4.08103 2.4175 4.64878 2.87047 6.62914 1.27447 2.48294 6.09293 1.69669 4.44185 1.97963 3.21016 5.81144 2.52211 2.97527 1.89963 2.24195 0.253176 8.6854 5.31583 4.62097 0.9998 6.3976 6.52452 1.19932 8.36106 1.68939 3.53589 0.475426 3.58189 2.13242 3.86248 4.27923 0.551048 3.10686 3.29049 0.409954 3.20824 6.99096 4.78218 3.7459 4.95081 1.19183 2.32913 0.543784 2.45962 7.437 3.1728 3.80356 3.7081 0.382184 6.96172 2.7922 3.59823 4.49189 0.396755 0.356043 9.70908 2.90833 3.46088 2.4175 2.69643 4.08774 2.5137 0.414752 1.20405 3.67848 5.42363 1.06458 6.16617 1.81178 2.47126 0.880296 1.26525 0.532389 3.93188 7.54436 2.22172 3.29049 2.05354 2.14817 8.77547 4.87069 2.13947 0.522185 4.10523 0.349086 5.89155 0.467021 6.60627 1.11367 2.51987 1.26233 4.02001 4.02827 1.33672 5.68233 0.707976 5.0334 4.87069 0.546668 0.393994 8.95145 3.87848 1.63934 5.34362 3.05456 0.283959 9.09457 1.55188 0.956991 3.2443 1.91545 4.53918 1.44376 2.46421 1.41651 1.7445 2.53664 2.81823 6.30737 3.70415 1.80544 1.05689 2.61833 2.16373 0.861097 6.27955 0.683297 10.1761 2.25055 6.42799 2.72816 1.25302 4.54641 5.14629 0.45444 2.29342 6.77914 0.87495 6.15538 0.842711 1.62181 2.76173 3.23895 2.89331 0.433881 1.37953 0.609479 2.48691 3.53356 2.22624 2.42659 8.4 3.4858 6.91634 1.86992 4.718 2.88235 3.0172 4.55256 3.68092 3.67848 4.26778 3.8066 5.37219 0.409161 4.39422 2.29913 3.8355 3.56353 7.03271 1.68903 4.28673 1.59342 8.03319 2.45692 3.46823 3.21016 3.14079 2.51261 3.85147 1.04326 3.41025 1.41123 6.22932 0.742892 10.5219 0.53865 2.69819 3.28959 6.75481 0.351273 6.74159 1.28335 0.525579 4.55102 4.38199 5.6546 1.99005 3.08112 1.31574 10.1761 0.940546 6.58275 2.47325 0.761748 2.39101 4.02105 1.19183 4.39111 5.27081 4.5444 6.15801 2.23862 4.75583 5.00245 0.621089 1.50013 0.253176 8.81489 4.74603 1.86424 0.979924 3.99022 0.771236 4.54571 2.40985 5.16657 3.21058 6.58355 0.52635 8.79761 3.10686 1.56571 8.95145 6.42799 0.873037 5.63011 1.32958 4.21626 0.88076 0.781371 2.60438 2.17028 4.55256 2.52153 8.36106 3.17031 1.11367 2.95564 3.12431 1.30026 6.83383 1.08109 2.29913 3.39255 1.61676 3.60737 0.475426 8.79761 2.16689 1.09348 7.19521 1.27725 3.27513 2.89531 1.64624 0.374674 0.664313 2.39133 3.13785 5.59555 7.00199 1.39882 7.2765 1.99005 0.46169 3.44839 5.14629 0.571259 1.87475 10.4098 0.351577 2.51261 2.6629 5.08396 3.89531 4.95121 3.09932 1.65211 1.77114 1.25302 2.05488 4.62285 6.22829 0.187519 0.921311 2.86117 3.87141 0.781371 3.2152 2.88235 1.64025 2.70667 8.31386 0.830625 9.09317 1.31768 1.37953 8.56561 1.58895 0.614405 8.2515 1.81658 0.632721 3.54078 3.80814 1.65211 1.73259 4.69068 5.44178 0.374674 7.84096 0.563642 9.40857 1.32155 1.7191 6.23546 3.34976 0.992802 0.275806 7.93783 8.62689 0.65291 3.14048 3.95519 0.607711 3.20407 3.37541 0.382184 1.53071 4.24628 0.39769 1.48759 1.58063 4.62097 0.552836 1.27664 2.54472 4.32492 1.1849 2.41846 4.30233 2.73617 0.690107 3.69376 1.32604 4.12789 1.19406 0.858965 2.9994 1.01978 2.65519 3.1728 0.355801 5.0501 0.231938 7.37118 2.44215 4.05609 1.79806 1.66482 3.41025 2.61182 2.0529 2.73617 3.49141 5.61963 0.655783 8.25092 0.609479 0.672212 2.93489 4.38858 0.463741 3.96688 3.15334 5.85474 5.31047 2.63109 0.515088 7.22811 3.25449 1.63502 0.719186 2.35043 3.26014 0.687414 0.318446 9.39751 5.15707 2.61182 2.95494 0.687414 0.419012 7.39279 2.78556 0.807945 2.78821 2.44833 2.7948 0.316016 2.77736 2.00458 1.14829 4.68116 0.39769 3.75059 2.88388 3.89635 6.64047 3.70415 2.76157 1.08147 6.91258 3.25862 2.79057 0.321726 6.28717 0.976504 3.85147 0.351577 3.13728 0.812113 2.67021 6.93377 2.13384 5.63853 0.911924 0.756828 3.45421 3.14079 1.97963 3.17759 5.99851 5.27188 2.31721 3.05593 1.95683 5.06957 2.71573 4.0011 1.35179 3.53589 6.40816 7.03391 1.32466 2.83023 0.673522 0.880296 7.61325 0.5704 1.23462 2.60414 1.72997 6.72693 3.03683 0.470127 2.53664 4.87306 5.18261 3.78659 10.3439 1.63502 2.48203 2.21226 2.94874 1.78123 0.263788 1.87475 2.36304 4.5444 0.985055 0.593482 9.39751 2.77723 6.68752 5.1218 1.81178 0.502839 1.59438 6.79647 0.463741 1.41055 0.992416 4.9602 3.29277 1.02627 2.93139 0.201455 1.7191 5.44658 2.13537 7.00268 2.6629 6.22932 0.851744 6.6919 2.66272 0.388937 0.53865 4.76683 1.58944 4.04246 1.62181 7.54999 4.34875 4.00708 2.98347 4.53309 0.444156 2.59666 2.42962 0.270707 3.38298 3.27693 0.378191 9.86951 1.00343 4.49351 0.674859 2.21158 2.40985 1.11986 9.09317 1.44429 0.607711 4.7542 6.79237 9.48124 3.39255 4.39422 3.97842 1.52453 6.1977 2.37725 4.84503 2.56841 4.83699 0.322493 2.14817 4.20868 2.54188 4.49351 3.41389 1.25169 6.37623 1.66482 9.72437 0.862311 0.64026 7.81157 0.851744 1.41123 1.25762 7.41408 1.43389 3.57594 4.75583 0.914739 0.851515 2.04731 3.8355 4.80744 2.7789 5.91464 4.29817 5.53318 1.04842 1.56648 3.673 0.992416 4.89689 2.27839 6.72456 2.70029 3.43937 1.06654 5.18261 4.06782 0.358158 2.79793 3.58026 3.69579 1.77512 3.71713 1.463 5.82956 2.82615 6.13292 1.86967 1.74596 0.9594 3.42442 3.25336 3.43285 3.41079 1.33275 1.73259 2.52797 0.767689 5.06957 1.32932 3.88053 5.0501 2.52866 8.85699 0.743548 1.07569 6.9091 2.97751 8.06155 0.674859 2.54188 1.0845 8.12155 0.831657 9.24444 3.85882 3.25862 2.99582 7.72116 2.04225 1.86992 3.62724 2.36417 0.423866 8.2515 0.59899 7.30666 2.84327 3.07404 4.50421 0.358728 9.70908 2.87625 3.56353 2.04731 2.26641 1.94568 0.641319 7.37705 1.72225 4.92261 0.831598 2.58206 4.27101 6.64183 3.36321 2.84327 1.93298 3.08472 1.26525 6.72693 3.6179 6.72456 3.2443 4.20956 0.924233 5.05297 6.00179 2.88388 3.98725 4.32492 2.13252 6.75215 1.15491 1.61346 7.22893 2.8637 3.46126 5.30069 2.01245 5.26805 0.520267 3.19166 0.367471 8.42858 4.10523 0.423673 3.72874 3.27513 5.12793 1.59438 7.35717 1.70134 2.42264 1.38807 4.34856 0.279942 0.346414 7.64928 0.900933 0.78762 1.70134 2.38319 6.14741 2.6902 0.37221 3.35237 0.480968 4.27101 0.906582 5.16226 1.38743 4.32032 6.34257 6.55684 0.664313 3.84042 9.86951 3.23392 4.94542 0.11915 7.96307 2.16689 5.44178 0.320772 2.87047 0.529792 2.13537 1.37298 6.77914 6.32636 4.27372 2.35043 7.58187 0.812113 3.57468 6.22827 0.22288 6.82056 1.14148 1.61923 3.23895 4.29828 3.88986 1.86424 2.90351 1.91496 6.58275 2.01507 0.64026 5.19772 4.76683 10.5219 3.90423 5.16226 2.25129 3.13785 1.07187 1.43389 0.46169 5.6546 0.683297 1.77114 3.80814 6.14607 0.355801 6.96172 3.37541 4.45085 0.714232 2.52866 1.55097 8.85699 0.714232 3.4241 0.662664 6.9091 1.74485 2.70029 3.6179 1.72997 4.71928 5.16485 0.409954 2.22172 0.24695 3.66563 3.58026 2.20224 0.351273 6.45942 4.01493 6.32548 0.134194 0.957953 4.14624 2.83023 2.37725 2.70043 1.57213 1.32932 1.55097 1.07569 1.5684 5.20181 3.909 6.38782 3.53907 0.688311 1.9213 0.723079 3.51416 8.75229 2.89331 1.61923 3.41582 3.43285 1.95683 1.68939 2.52153 3.0172 1.74515 3.82432 1.13168 1.05689 0.926177 5.76807 1.96252 3.25915 7.1503 3.06041 6.33729 0.723079 2.66271 2.69819 0.388937 0.200072 2.58781 1.2442 6.89636 0.356622 3.21058 1.44022 5.79983 0.230138 1.43577 0.957953 1.46783 4.26705 4.15924 2.16829 7.04621 1.65739 6.09175 3.90136 0.575254 9.97869 4.88118 4.30254 1.4552 6.86901 0.637885 5.15217 6.23546 0.201455 3.83994 2.17106 1.59508 9.65499 0.277214 0.1304 4.7953 6.27082 0.411939 8.60173 0.858965 0.83383 6.99096 3.48033 2.51987 3.17031 1.8419 2.28229 0.132527 7.21848 1.00542 2.23208 3.22994 3.99656 0.414449 5.51167 0.818511 10.0255 0.570099 4.01451 4.92002 4.03295 3.14203 0.349086 5.12793 1.27725 1.57918 1.65739 0.185521 2.63109 0.336273 3.12305 6.16617 0.118077 3.98365 0.771236 2.86718 3.27427 0.118077 1.06458 1.22329 3.39716 4.48508 7.95691 0.617649 2.53118 8.12989 0.719865 3.46126 1.42469 0.624535 5.42126 2.69819 3.71139 0.419012 5.96231 0.672853 1.30463 6.25231 0.707976 0.495413 4.16685 0.308889 2.77069 1.16991 2.2613 6.38782 4.47584 1.28335 5.97576 0.358158 0.370871 1.69669 3.82051 1.67004 1.14437 0.185521 9.97869 5.11345 3.04058 0.35226 3.15334 1.85422 5.27188 3.09695 1.63128 8.51422 2.79057 3.85882 2.93363 0.378011 2.45962 11.0382 2.60015 1.00542 2.60783 4.99877 0.222467 8.25001 1.82827 0.846556 3.00549 2.67796 3.24486 0.672853 6.17873 2.52797 7.84096 1.64624 4.48702 1.52339 1.99681 0.632373 3.27693 7.80409 1.73654 9.65499 2.53118 2.24191 2.28317 5.83887 7.22838 0.948968 1.55295 6.86901 0.297515 0.465881 4.7953 3.63482 1.30026 3.25898 3.08112 7.2765 3.64166 3.84201 1.97979 0.89552 4.62285 4.71049 1.53071 3.7081 3.63351 2.36631 0.9998 1.58063 8.16753 4.1339 0.414927 2.99582 6.91258 0.843392 3.83994 2.93139 0.117375 9.62611 1.22329 5.42363 3.68092 2.17028 1.15491 7.27196 1.45784 5.21307 3.23992 2.77736 2.33478 3.62314 2.6902 3.90423 7.41408 2.42264 0.78762 4.72573 0.538452 3.48927 5.80111 0.480968 4.0686 4.40562 2.13384 2.36867 6.64183 0.802395 5.59555 2.25129 0.906582 1.93298 7.30666 4.34856 3.75441 3.96688 6.79647 1.62859 3.97842 0.409161 1.77179 0.495413 3.909 6.33729 7.45653 7.84286 0.729914 3.86248 4.48702 2.89531 3.72874 6.94669 0.263788 6.52905 3.57468 3.13728 10.4098 0.618565 5.07788 2.2528 3.41079 1.13168 3.98837 5.2785 5.26805 0.860661 10.2885 2.71573 0.767689 1.99681 5.76875 2.26353 6.78998 2.76157 6.27955 2.20718 4.61105 1.33672 2.23553 1.91097 7.4148 0.690107 2.0529 5.15707 0.593482 2.12239 0.423866 7.14731 2.78821 7.35831 1.81658 4.0011 6.78998 0.614964 1.30463 3.24486 2.44746 5.8788 7.09291 1.75409 3.38948 0.320772 4.69068 1.33275 2.2528 2.98161 6.62914 0.64991 2.04408 5.38421 3.7553 7.09291 1.44804 0.525579 4.47584 5.18031 9.40857 1.99644 6.98053 0.87833 0.571259 4.54641 1.37298 3.10869 3.08939 6.52049 1.48354 0.76567 6.79237 1.11944 1.69911 4.38858 5.35039 1.67643 4.29817 1.41055 1.19932 6.08701 3.00549 1.75357 3.4858 3.2152 0.88076 0.924764 0.632721 7.35831 0.807945 1.56273 0.495181 10.0102 5.54409 6.17873 5.96231 0.316016 3.30548 5.22302 4.71928 2.60414 4.00534 5.38245 1.02627 2.08885 2.31721 1.85422 1.60285 2.38319 7.35717 4.12789 8.76 1.34206 0.204857 4.1841 2.99349 3.26035 3.59368 0.414449 4.76791 1.03318 3.12624 1.97979 1.67125 3.71139 3.40112 4.04806 7.39279 0.758578 10.2885 3.18469 8.73407 2.60438 8.31386 1.06528 0.833175 8.73407 1.04902 0.117375 2.72816 4.21626 4.23808 1.70367 0.519192 3.89531 2.25418 8.25001 2.00664 2.70651 3.48927 1.08995 1.07195 4.86701 2.13229 2.9358 0.618565 5.2958 1.6604 2.30636 7.03271 2.87625 0.356043 9.39143 4.02105 6.71455 0.615195 1.6604 3.02741 2.32913 2.95494 5.61963 0.78431 1.50931 1.45187 4.56715 0.515088 1.04902 3.18469 0.860661 2.01245 0.526254 3.39716 9.62611 3.99022 5.48222 1.87621 2.25688 2.86718 6.03102 8.06155 0.517287 1.44415 2.47879 6.6919 7.81157 2.01507 0.742892 1.44516 3.70997 3.62793 4.2058 2.9994 8.60173 3.7459 5.07737 2.70043 4.20868 2.05354 2.20349 6.3976 2.36631 3.29405 2.89056 0.450635 4.84503 5.20181 2.26647 4.80292 0.847872 2.75927 8.6854 1.50013 3.01628 6.40816 0.249302 8.62689 0.958013 0.532389 3.08472 2.27839 6.3656 0.546668 5.89155 3.14203 4.14796 1.08147 2.23553 1.8419 6.83383 3.64166 1.39882 0.87833 4.08943 2.54472 5.88677 2.7922 0.358728 0.528955 2.47948 2.13252 0.308889 1.23345 4.19879 4.74979 0.270707 7.31229 8.63397 2.16333 9.48124 0.76567 3.44857 5.06302 4.51014 3.28959 2.66271 1.9213 1.61676 6.1977 2.57864 5.27643 3.75885 3.15265 5.82956 1.8425 2.95037 2.61614 0.756828 6.29143 5.79983 0.886901 6.72591 2.77069 7.31229 2.42962 2.5931 2.876 2.76289 1.86967 1.70738 4.83699 5.24175 5.0334 6.25231 0.614964 2.26353 3.98944 2.13947 2.8637 4.1753 8.01535 1.00347 2.61959 1.42469 2.08717 8.01816 0.667731 0.691858 2.48203 3.25449 1.7114 4.30023 1.67125 3.84201 1.84987 2.22624 7.42475 4.78218 0.83383 1.19406 3.88053 1.57213 5.07737 0.569842 4.39111 0.646909 1.44516 6.75481 4.51014 0.539427 5.69052 1.64025 4.718 2.04225 0.614405 3.09932 2.93489 0.514531 3.38948 2.52136 2.24074 5.35039 4.52083 9.03688 0.520267 5.2785 0.758578 0.833175 1.88524 0.916653 0.992802 3.41746 1.13636 0.450635 5.65981 7.01609 1.91097 6.89231 3.53907 2.2613 4.10436 2.09646 3.82051 5.81144 3.46823 3.27027 4.35761 2.13229 3.24232 8.35538 0.641319 7.04161 1.46783 0.134194 1.19632 5.38421 2.39381 2.13384 4.87891 3.83889 4.27923 0.729914 0.760501 2.47879 6.49605 1.74038 4.01866 2.77723 0.583923 3.41582 1.14148 5.33063 5.76807 4.4209 0.414752 8.85076 0.933433 1.96542 7.22838 1.96444 1.67537 4.32032 3.7797 4.92002 4.97556 2.5931 2.59666 5.69236 0.243874 7.32305 0.9594 8.17467 4.72573 0.900933 5.34511 0.89552 3.12624 3.10803 3.01764 4.49954 6.22829 4.79336 2.28229 4.08943 6.98053 0.646909 6.15801 2.36304 5.08396 2.66272 3.70997 3.44839 6.14607 3.54078 0.924764 2.58034 0.45444 3.4241 4.45085 3.20407 1.44429 2.16333 7.35198 0.363231 2.78714 0.847872 4.48806 3.28433 3.09695 5.99851 2.65519 7.83299 3.29405 3.63351 3.80356 2.39381 2.04408 4.3469 2.57433 1.61492 7.37705 0.370871 4.06782 4.87306 1.7445 5.64246 2.13384 4.44185 3.03683 1.06654 3.66563 3.35043 2.82615 3.56862 2.67205 0.336273 5.31047 2.08614 1.58895 3.09412 0.438918 3.89635 4.14796 5.1581 8.55158 1.67004 3.27027 2.45692 0.931533 2.20224 2.79793 5.97576 6.74159 2.63109 6.32693 1.56648 4.69012 2.81866 1.61346 0.876571 0.283959 4.01866 0.650126 5.9662 0.717526 0.568513 6.68752 1.30167 3.09412 8.56561 0.433881 8.75229 1.05984 3.89648 4.74794 3.66702 3.72877 1.29173 2.98347 0.844282 4.24628 8.16753 1.1849 3.98725 3.75059 0.976504 6.11459 2.47044 4.51004 2.17106 0.843392 0.948968 1.96542 4.78702 5.40125 8.12989 1.08109 0.52635 0.393994 3.39481 3.56168 4.19879 3.52372 3.8066 0.979924 3.88986 0.940546 4.95081 1.14576 5.48222 0.35226 3.63316 3.41389 1.00343 0.830625 2.08614 5.85474 1.43932 4.08774 4.44127 3.12662 6.89636 0.321726 11.0382 0.543784 3.02741 9.39143 0.396755 0.36016 0.24695 8.77547 0.322493 1.70738 6.13292 3.35043 0.174469 3.90136 4.17722 3.73429 0.931533 8.03319 4.14624 7.04621 1.79791 1.80352 2.52211 2.75927 0.673522 3.05456 5.45734 0.277214 1.73654 2.39665 3.39481 2.47126 5.1218 0.568513 2.24494 3.3497 7.61325 1.96562 3.10869 4.27372 0.51922 3.78791 7.37118 0.578078 1.44376 2.72527 4.48806 4.37983 8.78974 1.29173 7.16479 0.492199 6.05461 0.94582 4.53309 1.91545 6.00179 2.95326 0.363231 3.17759 3.61379 2.27359 2.26641 5.91464 1.1466 1.22897 3.18952 1.45784 4.4354 0.528955 1.38807 5.80111 2.70651 2.78429 0.655783 3.75441 3.82586 4.44127 2.69643 4.08103 6.15538 2.40787 2.43774 4.69012 1.04842 2.82889 10.0255 1.78643 4.17722 6.09175 1.57918 7.19521 0.957358 8.1331 2.33672 0.552836 5.31583 2.20349 1.13636 0.672212 8.4 0.269983 4.3469 0.64991 5.8788 0.514531 1.0594 5.1581 3.73429 1.78643 1.09348 7.96307 2.92605 2.89597 1.11944 4.7542 3.95519 4.69538 6.75215 2.47948 4.4354 7.27196 0.838326 8.19403 2.14384 0.873037 2.25055 1.31574 3.25898 3.12431 1.44415 1.10987 3.44857 1.48354 2.4659 6.49605 0.78652 9.19388 2.77687 3.71713 5.81651 2.58034 10.0102 0.533201 0.51922 6.32636 2.29342 0.956991 9.65872 0.230138 6.29143 2.05019 4.20956 2.61614 5.54548 5.11345 0.575254 0.174469 1.59342 3.45421 1.79806 2.09476 3.25915 1.80434 2.61303 9.72437 2.23946 6.3656 4.89689 0.714212 3.22994 1.21811 6.81295 2.58781 4.64878 3.46088 1.75357 0.846556 6.69452 1.01563 3.62724 6.91634 2.78429 2.00664 0.222467 5.06925 2.48691 8.25092 3.61379 3.05593 2.08885 3.29277 1.19214 6.10666 0.847872 8.06013 2.56678 1.94523 0.78652 0.796758 4.37983 1.27664 2.33672 1.12255 2.47044 0.294588 3.59823 5.88677 3.2552 2.24191 5.42126 8.95906 1.60285 8.51422 1.58359 1.7135 6.14741 0.685381 5.69236 0.444156 3.84042 1.2727 1.34206 8.45324 5.34362 1.98967 3.63482 0.1304 5.45734 0.502839 7.54436 0.584736 2.26647 1.5684 0.743548 6.03102 0.583923 4.04246 6.44482 4.29828 2.76173 0.844774 1.00347 1.02856 3.07404 3.36321 2.36867 0.760501 7.84286 3.14445 7.09921 2.21226 0.691858 5.82606 0.43101 4.40562 0.633758 1.05984 3.9046 0.978607 4.87891 0.484183 8.35538 1.05962 8.33564 0.186348 2.48294 3.52372 1.23345 4.16685 1.77179 5.3