<VTKFile type="UnstructuredGrid" version="0.1">
<UnstructuredGrid>
<Piece  NumberOfPoints="    2094" NumberOfCells="     351">
<Points>
<DataArray type="Float64" NumberOfComponents="3" format="ascii">
16.84 -14.948 0.0
17.3592 -12.2744 0.0
15.8308 -11.1582 0.0
13.0507 -10.4983 0.0
11.4223 -12.6037 0.0
14.6135 -17.4269 0.0
15.5865 -17.2841 0.0
21.1025 -21.8181 0.0
20.8708 -21.0474 0.0
17.6177 -20.9017 0.0
14.2108 -24.504 0.0
15.8824 -26.0819 0.0
24.335 -32.7882 0.0
23.286 -36.4131 0.0
26.4368 -36.2409 0.0
29.7287 -31.3995 0.0
30.9476 -29.5943 0.0
30.7066 -28.7356 0.0
27.2185 -30.2957 0.0
-41.9607 18.1505 0.0
-38.7298 17.6261 0.0
-36.7316 20.5198 0.0
-36.3524 21.5179 0.0
-39.9287 24.425 0.0
-40.9172 23.2596 0.0
-41.7714 19.6222 0.0
22.1952 -2.58332 0.0
22.9516 -4.47514 0.0
26.3056 -3.01091 0.0
26.7371 1.13386 0.0
26.4864 1.90602 0.0
22.2559 2.2914 0.0
27.214 1.0735 0.0
26.7825 -3.07127 0.0
29.574 -4.77908 0.0
30.9289 -2.15744 0.0
31.5876 -0.470616 0.0
31.1757 1.04134 0.0
8.9056 41.4006 0.0
5.30398 39.7887 0.0
4.87824 37.4915 0.0
5.37223 37.1474 0.0
6.35556 36.4867 0.0
9.23626 35.46 0.0
11.4912 37.3702 0.0
13.0364 39.8708 0.0
11.9528 40.6885 0.0
-17.5696 -45.0147 0.0
-21.6256 -43.5516 0.0
-25.4035 -45.7806 0.0
-21.9252 -48.3473 0.0
-12.4943 -26.851 0.0
-14.5382 -29.3195 0.0
-12.1637 -32.259 0.0
-8.4449 -33.0677 0.0
-7.81641 -31.4262 0.0
-24.4562 23.2482 0.0
-25.2343 21.9225 0.0
-25.3381 21.1847 0.0
-21.6141 18.5985 0.0
-18.4426 21.5982 0.0
-18.6229 22.1086 0.0
-43.2854 -28.8615 0.0
-40.9525 -25.1573 0.0
-47.3766 -23.0854 0.0
-46.1696 -25.9638 0.0
-14.6318 -11.4607 0.0
-15.3645 -7.25391 0.0
-19.6373 -5.38993 0.0
-20.1368 -5.90129 0.0
-21.1726 -8.34672 0.0
-18.6206 -9.63677 0.0
-19.9431 27.5712 0.0
-19.2262 28.0008 0.0
-20.3491 32.4211 0.0
-22.3392 31.8784 0.0
-24.3814 28.071 0.0
-22.9557 26.7493 0.0
0.304308 -9.54 0.0
1.42012 -8.93099 0.0
1.9308 -6.50328 0.0
-1.25127 -3.62158 0.0
-4.54631 -3.27592 0.0
-6.0673 -5.68936 0.0
22.6661 -42.1972 0.0
26.9377 -40.6619 0.0
28.2111 -39.0524 0.0
26.1503 -36.8965 0.0
22.9995 -37.0687 0.0
21.2205 -38.5501 0.0
19.5711 -40.2425 0.0
-26.9081 -6.27188 0.0
-31.7132 -10.0247 0.0
-29.7032 -13.0284 0.0
-28.8919 -13.0395 0.0
-25.7884 -10.1842 0.0
-10.3784 17.5312 0.0
-8.39345 19.1664 0.0
-7.16449 21.2433 0.0
-9.97123 23.0473 0.0
-13.8608 18.3316 0.0
45.0198 -14.0054 0.0
46.6014 -11.2438 0.0
46.5944 -7.80866 0.0
45.4656 -5.66688 0.0
44.2496 -6.25864 0.0
42.2653 -8.67179 0.0
41.7963 -12.4069 0.0
-1.70082 51.5791 0.0
2.27401 50.2672 0.0
4.0946 52.3198 0.0
2.8176 52.9458 0.0
-3.05478 53.2497 0.0
-4.39387 52.4994 0.0
8.51754 22.6123 0.0
10.4103 20.4835 0.0
13.6804 18.0996 0.0
16.821 19.762 0.0
15.939 21.3726 0.0
-38.0469 11.0276 0.0
-38.6429 7.21367 0.0
-35.7983 3.97622 0.0
-33.9171 7.19292 0.0
-35.61 13.4471 0.0
-37.3076 12.6822 0.0
-33.0373 25.511 0.0
-32.7345 28.9792 0.0
-36.9806 28.6365 0.0
-39.5721 24.9447 0.0
-35.9958 22.0376 0.0
13.7882 16.3972 0.0
11.7699 13.3684 0.0
13.6152 9.26167 0.0
15.7066 8.48445 0.0
16.8891 9.46786 0.0
18.0358 11.7086 0.0
33.2873 -29.2179 0.0
34.2336 -29.8779 0.0
41.0503 -23.004 0.0
41.184 -21.3814 0.0
39.5687 -20.8809 0.0
-14.2263 55.8262 0.0
-17.3724 52.853 0.0
-18.8835 50.7618 0.0
-16.2909 50.5568 0.0
-12.7214 51.2376 0.0
-12.337 51.3663 0.0
-13.0253 56.2034 0.0
7.64358 -43.899 0.0
7.92015 -43.6071 0.0
4.75733 -41.0685 0.0
1.46063 -41.277 0.0
-0.237124 -44.7169 0.0
-14.9016 8.96593 0.0
-13.9922 10.8535 0.0
-17.6129 14.2774 0.0
-20.3504 11.355 0.0
-20.0075 8.84228 0.0
50.0929 -18.0142 0.0
50.6507 -13.3881 0.0
46.9329 -11.8026 0.0
45.3512 -14.5642 0.0
44.4191 -17.6246 0.0
47.2225 -18.8333 0.0
-44.343 10.2688 0.0
-39.265 11.3411 0.0
-43.5373 15.541 0.0
-44.8146 13.6004 0.0
17.2783 -20.6965 0.0
15.5416 -18.0291 0.0
14.5686 -18.1719 0.0
11.561 -19.8071 0.0
11.828 -22.0155 0.0
12.781 -24.4916 0.0
13.5794 -24.404 0.0
13.8715 -24.2988 0.0
13.9358 46.148 0.0
16.9753 45.5421 0.0
12.9753 50.3889 0.0
9.27503 50.6549 0.0
11.017 47.2625 0.0
-1.41636 14.3745 0.0
5.11861 12.0187 0.0
6.90164 14.8481 0.0
5.50669 16.3455 0.0
2.13414 17.6569 0.0
-1.79253 15.5669 0.0
4.97233 11.6 0.0
-1.56265 13.9558 0.0
-1.63093 9.25928 0.0
1.60581 8.24915 0.0
3.56306 7.99887 0.0
4.9468 10.9132 0.0
-37.5581 -31.8933 0.0
-36.6565 -30.5594 0.0
-38.1253 -27.6552 0.0
-40.1331 -25.1704 0.0
-40.5083 -25.4954 0.0
-42.8412 -29.1996 0.0
-39.7573 -32.1404 0.0
-15.6374 -15.8836 0.0
-12.5376 -19.3555 0.0
-8.50281 -16.2388 0.0
-10.0559 -14.7462 0.0
-13.0595 -13.8162 0.0
-13.4236 -13.7301 0.0
-13.825 32.7901 0.0
-11.3553 33.8482 0.0
-9.99214 35.0762 0.0
-16.693 36.1752 0.0
-17.7039 33.6577 0.0
-42.2667 -10.3891 0.0
-45.1094 -8.34656 0.0
-46.2967 -10.1658 0.0
-45.8162 -13.6186 0.0
-44.832 -16.3732 0.0
-40.8621 -14.5846 0.0
-2.53885 -27.7867 0.0
-1.96768 -27.9185 0.0
2.95005 -25.7389 0.0
2.98172 -25.5947 0.0
2.79542 -24.287 0.0
-1.23393 -22.9116 0.0
-3.23458 -22.8621 0.0
-2.65329 -27.7413 0.0
-23.741 -11.7824 0.0
-25.5243 -10.5683 0.0
-28.6279 -13.4236 0.0
-25.1743 -17.8756 0.0
31.2866 4.66815 0.0
32.2029 5.10014 0.0
33.5705 11.3846 0.0
30.8103 11.9682 0.0
29.4946 8.25152 0.0
14.1162 16.7694 0.0
18.3637 12.0809 0.0
21.7678 13.8308 0.0
20.334 17.5803 0.0
17.3169 19.2954 0.0
14.1762 17.633 0.0
-11.8645 -32.7828 0.0
-12.2809 -33.3957 0.0
-7.90817 -38.2513 0.0
-7.08231 -38.3519 0.0
-5.52109 -38.0481 0.0
-5.06035 -35.5985 0.0
-5.361 -35.3876 0.0
-8.14566 -33.5915 0.0
-39.7671 -35.5464 0.0
-40.0239 -32.3755 0.0
-43.1078 -29.4347 0.0
-45.9921 -26.5371 0.0
-44.1653 -30.5637 0.0
-42.2343 -33.2879 0.0
28.9605 -43.4471 0.0
21.411 -47.2818 0.0
20.2532 -49.6912 0.0
22.9464 -48.8767 0.0
27.9979 -46.1334 0.0
30.8576 -43.7437 0.0
13.2536 -25.1505 0.0
12.4551 -25.2381 0.0
8.33932 -27.6347 0.0
9.19435 -31.1588 0.0
11.7143 -31.5527 0.0
12.0936 -31.3879 0.0
45.7811 16.3982 0.0
45.2704 16.566 0.0
43.1084 15.991 0.0
43.3209 11.7644 0.0
44.0977 9.87931 0.0
46.2898 9.32852 0.0
-44.2122 9.83789 0.0
-43.8514 6.40098 0.0
-40.7856 5.02323 0.0
-39.1501 7.16189 0.0
-38.5542 10.9758 0.0
-39.1342 10.9101 0.0
7.63014 15.0362 0.0
11.3005 13.839 0.0
13.3188 16.8677 0.0
13.3789 17.7313 0.0
10.1088 20.1152 0.0
6.23519 16.5336 0.0
39.2621 34.0828 0.0
36.194 35.7105 0.0
36.3095 33.5151 0.0
37.2336 31.4323 0.0
40.2351 27.8873 0.0
43.5995 26.0469 0.0
42.9518 27.893 0.0
41.2985 30.9925 0.0
-10.9965 -52.7883 0.0
-6.73615 -54.7466 0.0
-4.58439 -55.1916 0.0
-1.74394 -54.5155 0.0
-5.03344 -50.4144 0.0
-8.43906 -50.0068 0.0
-28.1055 27.84 0.0
-27.696 26.8263 0.0
-24.7192 28.2294 0.0
-22.6771 32.0368 0.0
-23.0717 35.4967 0.0
-23.9996 35.3778 0.0
-26.682 -3.24348 0.0
-26.3552 -5.04386 0.0
-20.7036 -5.41116 0.0
-20.2041 -4.8998 0.0
-21.7656 -1.21563 0.0
-23.0294 -0.286161 0.0
0.427885 -17.4743 0.0
-0.914951 -22.4333 0.0
3.11439 -23.8087 0.0
6.60815 -19.9586 0.0
5.52488 -18.0844 0.0
3.0133 -17.6362 0.0
-3.27011 23.9083 0.0
-6.61871 21.3583 0.0
-7.84766 19.2814 0.0
-5.75819 18.365 0.0
-4.74816 19.5517 0.0
-1.46589 23.4022 0.0
0.926777 -41.3054 0.0
-0.334609 -40.8569 0.0
-2.01437 -40.676 0.0
-4.57555 -44.8032 0.0
-1.78962 -46.0593 0.0
-0.770982 -44.7452 0.0
-46.5939 12.061 0.0
-47.7682 7.09534 0.0
-46.3659 3.85089 0.0
-44.308 6.41909 0.0
-44.6689 9.856 0.0
-45.1404 13.1875 0.0
5.2121 5.9683 0.0
9.14627 4.74959 0.0
10.9206 6.9395 0.0
5.53837 10.5742 0.0
4.15463 7.6599 0.0
0.0182708 41.2218 0.0
-4.098 41.9588 0.0
-4.42641 41.7624 0.0
-4.77244 36.369 0.0
-2.2087 35.772 0.0
0.741411 37.0512 0.0
0.616192 40.8048 0.0
3.14359 -5.98167 0.0
7.71252 -4.25844 0.0
7.93835 -2.5235 0.0
4.10138 -0.106692 0.0
10.0452 0.319768 0.0
8.52163 -2.49478 0.0
8.2958 -4.22972 0.0
9.05495 -4.88967 0.0
10.2412 -5.35143 0.0
12.0163 -6.0446 0.0
14.664 -2.04568 0.0
12.4481 -0.77918 0.0
15.0839 -2.3608 0.0
12.4362 -6.35972 0.0
13.1281 -9.7427 0.0
15.9082 -10.4026 0.0
18.602 -3.07344 0.0
16.1731 -1.72018 0.0
-50.1582 -0.57567 0.0
-46.3279 -0.162703 0.0
-46.6096 3.25806 0.0
-48.012 6.5025 0.0
-50.128 4.51548 0.0
-35.9551 -31.1372 0.0
-36.8567 -32.4711 0.0
-31.7611 -38.0647 0.0
-28.5112 -38.1854 0.0
-29.7596 -35.812 0.0
-31.43 -33.513 0.0
1.50019 -53.0578 0.0
-0.988834 -54.6878 0.0
-3.82929 -55.3639 0.0
-1.65445 -55.5846 0.0
2.04842 -55.0739 0.0
5.32307 -53.7971 0.0
25.6624 24.9742 0.0
24.2974 26.0527 0.0
21.666 22.4807 0.0
24.0004 20.0561 0.0
26.2963 20.2354 0.0
-13.9469 -5.31029 0.0
-13.2321 -4.96991 0.0
-12.612 -1.70788 0.0
-14.3488 1.62445 0.0
-17.8272 0.523704 0.0
-18.2375 -0.0550195 0.0
-1.44065 -3.07117 0.0
-0.454443 -0.635373 0.0
-2.92733 1.20081 0.0
-5.58877 2.47678 0.0
-6.48504 -0.821098 0.0
-4.73569 -2.72552 0.0
-19.0886 -35.811 0.0
-19.9852 -38.2934 0.0
-12.3696 -40.413 0.0
-12.4797 -38.8812 0.0
-15.6201 -36.7193 0.0
-37.0099 -27.3157 0.0
-37.5404 -27.7695 0.0
-36.0716 -30.6736 0.0
-31.5465 -33.0494 0.0
-30.0337 -30.8031 0.0
33.1178 -20.1547 0.0
32.8859 -19.3382 0.0
30.3489 -20.5925 0.0
28.2254 -22.8595 0.0
27.4065 -26.179 0.0
27.5827 -28.892 0.0
15.0929 24.3542 0.0
17.9466 25.9192 0.0
19.4539 28.6385 0.0
17.3148 31.0929 0.0
14.9076 31.0692 0.0
13.9302 25.11 0.0
41.9816 1.7692 0.0
41.8134 2.59978 0.0
39.2965 2.74587 0.0
38.4055 -1.08622 0.0
38.8628 -6.0435 0.0
40.1857 -6.563 0.0
50.0031 3.92021 0.0
51.2131 0.585752 0.0
53.2865 -1.52967 0.0
53.3925 2.4411 0.0
52.434 7.29848 0.0
51.5538 9.47718 0.0
49.7374 10.806 0.0
49.7278 7.51298 0.0
-14.7628 44.5763 0.0
-17.8715 44.0687 0.0
-18.9362 41.5841 0.0
-19.4829 38.8689 0.0
-16.8014 39.5926 0.0
-15.4306 40.4428 0.0
-4.6131 27.0012 0.0
-2.99494 24.3835 0.0
-1.19072 23.8774 0.0
0.477135 23.7434 0.0
-0.576636 26.4337 0.0
-2.42275 28.5601 0.0
35.9995 -40.3991 0.0
38.7231 -38.356 0.0
42.2621 -34.6234 0.0
42.6388 -33.3579 0.0
40.1701 -32.8942 0.0
35.4136 -39.4638 0.0
-26.8906 -22.6973 0.0
-25.4459 -24.4869 0.0
-18.7914 -21.3408 0.0
-19.0814 -20.3389 0.0
-20.1499 -18.942 0.0
-24.5711 -19.1982 0.0
1.40511 27.3236 0.0
-0.0101944 26.3419 0.0
1.04358 23.6515 0.0
2.40768 22.9043 0.0
6.77594 23.765 0.0
8.23606 25.2363 0.0
-0.416644 31.4517 0.0
-0.0377279 31.415 0.0
4.58093 36.7548 0.0
4.08695 37.0989 0.0
1.03996 36.6342 0.0
-1.91015 35.3549 0.0
[...]
<CellData Scalars="cell variable 4" Vectors="cell vector">
<DataArray type="Float64" NumberOfComponents="3" Name="cell vector" format="ascii">
0 0 0
0 0 0
0 0 0
0 0 0
0 0 0
0 0 0
0 0 0
0 0 0
0 0 0
0 0 0
0 0 0
0 0 0
0 0 0
0 0 0
0 0 0
0 0 0
0 0 0
0 0 0
0 0 0
0 0 0
0 0 0
0 0 0
0 0 0
0 0 0
0 0 0
0 0 0
0 0 0
0 0 0
0 0 0
0 0 0
0 0 0
0 0 0
0 0 0
0 0 0
0 0 0
0 0 0
0 0 0
0 0 0
0 0 0
0 0 0
0 0 0
0 0 0
0 0 0
0 0 0
0 0 0
0 0 0
0 0 0
0 0 0
0 0 0
0 0 0
0 0 0
0 0 0
0 0 0
0 0 0
0 0 0
0 0 0
0 0 0
0 0 0
0 0 0
0 0 0
0 0 0
0 0 0
0 0 0
0 0 0
0 0 0
0 0 0
0 0 0
0 0 0
0 0 0
0 0 0
0 0 0
0 0 0
0 0 0
0 0 0
0 0 0
0 0 0
0 0 0
0 0 0
0 0 0
0 0 0
0 0 0
0 0 0
0 0 0
0 0 0
0 0 0
0 0 0
0 0 0
0 0 0
0 0 0
0 0 0
0 0 0
0 0 0
0 0 0
0 0 0
0 0 0
0 0 0
0 0 0
0 0 0
0 0 0
0 0 0
0 0 0
0 0 0
0 0 0
0 0 0
0 0 0
0 0 0
0 0 0
0 0 0
0 0 0
0 0 0
0 0 0
0 0 0
0 0 0
0 0 0
0 0 0
0 0 0
0 0 0
0 0 0
0 0 0
0 0 0
0 0 0
0 0 0
0 0 0
0 0 0
0 0 0
0 0 0
0 0 0
0 0 0
0 0 0
0 0 0
0 0 0
0 0 0
0 0 0
0 0 0
0 0 0
0 0 0
0 0 0
0 0 0
0 0 0
0 0 0
0 0 0
0 0 0
0 0 0
0 0 0
0 0 0
0 0 0
0 0 0
0 0 0
0 0 0
0 0 0
0 0 0
0 0 0
0 0 0
0 0 0
0 0 0
0 0 0
0 0 0
0 0 0
0 0 0
0 0 0
0 0 0
0 0 0
0 0 0
0 0 0
0 0 0
0 0 0
0 0 0
0 0 0
0 0 0
0 0 0
0 0 0
0 0 0
0 0 0
0 0 0
0 0 0
0 0 0
0 0 0
0 0 0
0 0 0
0 0 0
0 0 0
0 0 0
0 0 0
0 0 0
0 0 0
0 0 0
0 0 0
0 0 0
0 0 0
0 0 0
0 0 0
0 0 0
0 0 0
0 0 0
0 0 0
0 0 0
0 0 0
0 0 0
0 0 0
0 0 0
0 0 0
0 0 0
0 0 0
0 0 0
0 0 0
0 0 0
0 0 0
0 0 0
0 0 0
0 0 0
0 0 0
0 0 0
0 0 0
0 0 0
0 0 0
0 0 0
0 0 0
0 0 0
0 0 0
0 0 0
0 0 0
0 0 0
0 0 0
0 0 0
0 0 0
0 0 0
0 0 0
0 0 0
0 0 0
0 0 0
0 0 0
0 0 0
0 0 0
0 0 0
0 0 0
0 0 0
0 0 0
0 0 0
0 0 0
0 0 0
0 0 0
0 0 0
0 0 0
0 0 0
0 0 0
0 0 0
0 0 0
0 0 0
0 0 0
0 0 0
0 0 0
0 0 0
0 0 0
0 0 0
0 0 0
0 0 0
0 0 0
0 0 0
0 0 0
0 0 0
0 0 0
0 0 0
0 0 0
0 0 0
0 0 0
0 0 0
0 0 0
0 0 0
0 0 0
0 0 0
0 0 0
0 0 0
0 0 0
0 0 0
0 0 0
0 0 0
0 0 0
0 0 0
0 0 0
0 0 0
0 0 0
0 0 0
0 0 0
0 0 0
0 0 0
0 0 0
0 0 0
0 0 0
0 0 0
0 0 0
0 0 0
0 0 0
0 0 0
0 0 0
0 0 0
0 0 0
0 0 0
0 0 0
0 0 0
0 0 0
0 0 0
0 0 0
0 0 0
0 0 0
0 0 0
0 0 0
0 0 0
0 0 0
0 0 0
0 0 0
0 0 0
0 0 0
0 0 0
0 0 0
0 0 0
0 0 0
0 0 0
0 0 0
0 0 0
0 0 0
0 0 0
0 0 0
0 0 0
0 0 0
0 0 0
0 0 0
0 0 0
0 0 0
0 0 0
0 0 0
0 0 0
0 0 0
0 0 0
0 0 0
0 0 0
0 0 0
0 0 0
0 0 0
0 0 0
0 0 0
0 0 0
0 0 0
0 0 0
0 0 0
0 0 0
0 0 0
0 0 0
0 0 0
0 0 0
0 0 0
0 0 0
</DataArray>
<DataArray type="Float64" Name="cell vector length" format="ascii">
0 0 0 0 0 0 0 0 0 0 0 0 0 0 0 0 0 0 0 0 0 0 0 0 0 0 0 0 0 0 0 0 0 0 0 0 0 0 0 0 0 0 0 0 0 0 0 0 0 0 0 0 0 0 0 0 0 0 0 0 0 0 0 0 0 0 0 0 0 0 0 0 0 0 0 0 0 0 0 0 0 0 0 0 0 0 0 0 0 0 0 0 0 0 0 0 0 0 0 0 0 0 0 0 0 0 0 0 0 0 0 0 0 0 0 0 0 0 0 0 0 0 0 0 0 0 0 0 0 0 0 0 0 0 0 0 0 0 0 0 0 0 0 0 0 0 0 0 0 0 0 0 0 0 0 0 0 0 0 0 0 0 0 0 0 0 0 0 0 0 0 0 0 0 0 0 0 0 0 0 0 0 0 0 0 0 0 0 0 0 0 0 0 0 0 0 0 0 0 0 0 0 0 0 0 0 0 0 0 0 0 0 0 0 0 0 0 0 0 0 0 0 0 0 0 0 0 0 0 0 0 0 0 0 0 0 0 0 0 0 0 0 0 0 0 0 0 0 0 0 0 0 0 0 0 0 0 0 0 0 0 0 0 0 0 0 0 0 0 0 0 0 0 0 0 0 0 0 0 0 0 0 0 0 0 0 0 0 0 0 0 0 0 0 0 0 0 0 0 0 0 0 0 0 0 0 0 0 0 0 0 0 0 0 0 0 0 0 0 0 0 0 0 0 0 0 0 0 0 0 0 0 0 0 0 0 0 0 0 0 0 0 0 0 0 0 0 0 0 0 0 
</DataArray>
<DataArray type="Float64" Name="cell variable 4" format="ascii">
0.316217 0.000510187 7.22055e-10 1.1392e-10 0.249242 0.0032488 1.23542e-08 5.06408e-13 0.000319359 0.000137838 9.78894e-13 0.479217 5.48914e-07 1.04461 2.5153e-11 0.000586701 0.334198 4.77775e-11 2.14504e-13 0.161465 1.34433e-07 1.43573e-10 0.511974 1.79224e-10 2.32146e-14 1.06024e-10 0.393381 8.0853e-13 2.48184e-10 0.163146 9.42051e-13 0.626025 0.980966 1.75394e-12 0.437452 1.19294e-07 4.633e-11 0.184973 0.00760007 4.69927e-06 0.252014 1.1995e-07 1.0791e-13 1.08668e-13 0.000160982 5.75207e-12 8.58362e-10 0.434405 8.1913e-13 9.33834e-14 3.42967e-09 0.23011 0.442722 0.33356 3.05763e-10 1.53946e-11 1.06245 2.68958e-08 1.11547 0.912892 0.573608 3.35388e-12 6.26079e-12 3.62571e-14 1.55471e-05 0.542818 1.12037 6.17036e-10 1.36606e-10 1.97283e-08 4.18495e-05 2.5907e-09 2.35345e-13 5.84028e-11 0.0976075 7.68667e-14 0.000116047 0.0505895 5.96913e-06 1.61534e-05 5.26566e-05 2.73299e-11 5.60239e-07 9.71611e-13 1.81312e-09 8.20491e-13 1.55214e-11 1.10185 1.14226 0.371127 5.12565e-14 0.708918 3.8559e-13 1.82626e-12 4.42555e-05 0.00273317 0.118662 7.85135e-13 2.90644e-14 3.14565e-11 0.503886 5.73e-12 1.68594e-06 4.8591e-12 4.44145e-11 2.814e-10 2.22629e-12 5.76039e-06 3.47057e-13 9.51839e-14 3.83176e-13 1.11565e-11 1.3423e-11 0.673042 3.49399e-07 8.33062e-06 2.42345e-06 6.16323e-05 1.6923e-08 0.789941 6.21845e-13 1.12502e-11 3.37504e-10 4.46645e-09 2.16e-11 0.000425284 6.21089e-10 7.13306e-11 0.99432 5.20703e-14 2.06819e-12 3.18802e-14 5.41779e-08 0.000705084 0.66381 5.50953e-14 5.22026e-13 4.32436e-12 2.10901e-08 1.18023e-09 2.34778e-08 1.00681 7.58754e-07 1.95527e-13 1.73379e-12 2.90155e-14 2.88095e-08 6.97512e-07 3.13132e-09 8.68069e-05 0.0773391 5.37776e-11 0.00151096 0.919422 1.16697e-08 7.29789e-07 1.85341e-12 2.00391e-09 1.12956e-11 0.000237451 3.42138e-05 0.94865 0.848855 2.59037e-13 1.10621e-08 5.78851e-09 0.657465 8.723e-13 6.30556e-13 3.48747e-09 4.14778e-14 1.36504e-12 0.00403603 1.03617e-13 2.4788e-08 3.89469e-09 2.0118e-13 3.72001e-12 0.130161 0.0824302 9.53305e-13 0.179448 2.86502e-13 1.32488e-09 0.00103121 1.89305e-07 1.2938e-10 1.41816e-10 0.313432 0.136507 6.83616e-13 3.01178e-10 1.07467 8.75867e-11 1.36132e-10 2.06659e-11 6.13175e-07 6.80038e-10 1.5044e-05 3.52153e-13 0.790107 2.44056e-08 2.28015e-11 3.58878e-10 1.84661e-13 0.50937 0.45141 3.48316e-07 7.55742e-08 2.44034e-13 0.514292 0.000157331 4.61276e-06 0.495708 1.0952e-09 0.153908 7.50844e-12 4.76435e-12 1.38398e-06 1.23799e-05 7.27365e-13 3.28772e-13 3.34221e-13 0.00145277 3.05783e-14 0.8063 0.000331293 0.332003 2.73979e-13 0.763876 1.76443e-09 0.90618 1.25207e-10 0.187543 8.15157e-13 0.0646441 3.38072e-08 1.14453e-06 0.00370628 0.631062 7.9236e-08 1.73262e-10 0.343308 0.32239 0.000306373 0.399988 5.52696e-11 0.736473 2.24794e-07 5.6859e-12 5.98214e-11 0.393247 9.86599e-09 0.36504 1.60998e-08 1.04772e-07 1.86103e-08 3.09214e-07 0.0097703 1.5272e-11 1.65194e-09 1.09841e-08 0.184059 4.92599e-13 0.000209614 0.27464 0.0978407 0.0505895 2.73299e-11 4.61276e-06 0.000319359 6.80038e-10 5.06408e-13 0.542818 7.29789e-07 4.76435e-12 0.136507 3.49399e-07 0.184973 5.37776e-11 0.187543 3.42138e-05 1.79224e-10 1.73262e-10 5.20703e-14 0.000157331 0.00760007 2.5907e-09 2.16e-11 3.42967e-09 1.14453e-06 0.23011 2.34778e-08 8.15157e-13 4.46645e-09 0.0032488 1.06024e-10 2.24794e-07 1.0952e-09 1.16697e-08 7.9236e-08 1.1995e-07 1.68594e-06 0.179448 9.78894e-13 0.118662 0.000160982 8.723e-13 1.10621e-08 1.61534e-05 0.631062 1.73379e-12 6.13175e-07 7.27365e-13 1.97283e-08 0.153908 5.22026e-13 1.11547 5.50953e-14 5.48914e-07 0.0824302 0.32239 0.161465 2.48184e-10 4.69927e-06 5.75207e-12 3.72001e-12 2.10901e-08 0.00103121 1.36606e-10 6.21845e-13 0.000137838 6.17036e-10 5.26566e-05 3.14565e-11 5.96913e-06 3.48747e-09 0.495708 0.36504 1.55471e-05 2.59037e-13 5.12565e-14 1.18023e-09 1.85341e-12 0.000425284 7.58754e-07 5.6859e-12 0.848855 0.000510187 2.44034e-13 0.657465 
</DataArray>
<DataArray type="Float64" Name="cell variable 5" format="ascii">
0.0909148 0.999974 1 1 0.138655 0.998946 1 1 0.99999 0.999998 1 0.0417277 1 0.00908091 1 0.999966 0.082177 1 1 0.277231 1 1 0.0367488 1 1 1 0.0606986 1 1 0.273099 1 0.0248813 0.0102849 1 0.0496613 1 1 0.226167 0.994257 1 0.136034 1 1 1 0.999997 1 1 0.0503251 1 1 1 0.158855 0.0485429 0.0824658 1 1 0.00878122 1 0.00797274 0.0118572 0.0294962 1 1 1 1 0.0328244 0.00790366 1 1 1 1 1 1 1 0.512105 1 0.999999 0.796223 1 1 1 1 1 1 1 1 1 0.00816951 0.00760594 0.0676886 1 0.0195097 1 1 1 0.999254 0.415271 1 1 1 0.037893 1 1 1 1 1 1 1 1 1 1 1 1 0.021599 1 1 1 1 1 0.0157727 1 1 1 1 1 0.999982 1 1 0.0100133 1 1 1 1 0.99995 0.0221905 1 1 1 1 1 1 0.00976872 1 1 1 1 1 1 1 0.999999 0.62573 1 0.999772 0.0116913 1 1 1 1 1 0.999994 1 0.0109898 0.0136882 1 1 1 0.0226112 1 1 1 1 1 0.998374 1 1 1 1 1 0.371169 0.595425 1 0.236958 1 1 0.999894 1 1 1 0.0923878 0.349234 1 1 0.00858434 1 1 1 1 1 1 1 0.0157662 1 1 1 1 0.0371116 0.0467791 1 1 1 0.0364304 0.999998 1 0.0391044 1 0.296844 1 1 1 1 1 1 1 0.999789 1 0.0151488 0.999989 0.0831765 1 0.016849 1 0.0120314 1 0.221374 1 0.705275 1 1 0.998628 0.0244954 1 1 0.0782104 0.0877689 0.999991 0.0588268 1 0.0181031 1 1 1 0.0607373 1 0.0698059 1 1 1 1 0.990544 1 1 1 0.227907 1 0.999996 0.117059 0.510913 0.796223 1 1 0.99999 1 1 0.0328244 1 1 0.349234 1 0.226167 1 0.221374 1 1 1 1 0.999998 0.994257 1 1 1 1 0.158855 1 1 1 0.998946 1 1 1 1 1 1 1 0.236958 1 0.415271 0.999997 1 1 1 0.0244954 1 1 1 1 0.296844 1 0.00797274 1 1 0.595425 0.0877689 0.277231 1 1 1 1 1 0.999894 1 1 0.999998 1 1 1 1 1 0.0391044 0.0698059 1 1 1 1 1 0.999982 1 1 0.0136882 0.999974 1 0.0226112 
</DataArray>
<DataArray type="Float64" Name="cell variable 6" format="ascii">
0.0038835 1.00883 1.00917 1.00917 0.0566856 1.00681 1.00917 1.00917 1.00896 1.00908 1.00917 0.00051123 1.00917 6.33494e-06 1.00917 1.00878 0.00576492 1.00917 1.00917 0.298329 1.00917 1.00917 0.00035504 1.00917 1.00917 1.00917 0.00151522 1.00917 1.00917 0.294057 1.00917 0.000115922 9.11938e-06 1.00917 0.000885689 1.00917 1.00917 0.208208 1.00277 1.00917 0.0441278 1.00917 1.00917 1.00917 1.00907 1.00917 1.00917 0.000857904 1.00917 1.00917 1.00917 0.0671729 0.000858618 0.00403961 1.00917 1.00917 5.74138e-06 1.00917 4.32387e-06 1.38076e-05 0.000187165 1.00917 1.00917 1.00917 1.00916 0.000251962 4.21468e-06 1.00917 1.00917 1.00917 1.00915 1.00917 1.00917 1.00917 0.67289 1.00917 1.0091 0.900072 1.00917 1.00916 1.00914 1.00917 1.00917 1.00917 1.00917 1.00917 1.00917 4.64493e-06 3.76475e-06 0.0019189 1.00917 5.81379e-05 1.00917 1.00917 1.00914 1.00716 0.533485 1.00917 1.00917 1.00917 0.000380196 1.00917 1.00917 1.00917 1.00917 1.00917 1.00917 1.00917 1.00917 1.00917 1.00917 1.00917 1.00917 7.76673e-05 1.00917 1.00917 1.00917 1.00913 1.00917 3.156e-05 1.00917 1.00917 1.00917 1.00917 1.00917 1.00889 1.00917 1.00917 8.43313e-06 1.00917 1.00917 1.00917 1.00917 1.0087 8.3838e-05 1.00917 1.00917 1.00917 1.00917 1.00917 1.00917 7.8448e-06 1.00917 1.00917 1.00917 1.00917 1.00917 1.00917 1.00917 1.00912 0.780596 1.00917 1.00816 1.32528e-05 1.00917 1.00917 1.00917 1.00917 1.00917 1.00902 1.00915 1.10661e-05 2.09522e-05 1.00917 1.00917 1.00917 8.84138e-05 1.00917 1.00917 1.00917 1.00917 1.00917 1.00605 1.00917 1.00917 1.00917 1.00917 1.00917 0.477444 0.752638 1.00917 0.235078 1.00917 1.00917 1.00849 1.00917 1.00917 1.00917 0.00439847 0.432355 1.00917 1.00917 5.3719e-06 1.00917 1.00917 1.00917 1.00917 1.00917 1.00916 1.00917 3.15261e-05 1.00917 1.00917 1.00917 1.00917 0.000394946 0.000696942 1.00917 1.00917 1.00917 0.000349016 1.00907 1.00917 0.000410215 1.00917 0.3398 1.00917 1.00917 1.00917 1.00917 1.00917 1.00917 1.00917 1.00814 1.00917 2.80904e-05 1.00895 0.00364689 1.00917 3.81646e-05 1.00917 1.4406e-05 1.00917 0.185318 1.00917 0.841792 1.00917 1.00917 1.00642 0.000110922 1.00917 1.00917 0.00310284 0.00628005 1.00897 0.00127682 1.00917 4.69278e-05 1.00917 1.00917 1.00917 0.00202135 1.00917 0.0019794 1.00917 1.00917 1.00917 1.00917 1.00014 1.00917 1.00917 1.00917 0.235443 1.00917 1.00904 0.02163 0.674122 0.900072 1.00917 1.00917 1.00896 1.00917 1.00917 0.000251962 1.00917 1.00917 0.432355 1.00917 0.208208 1.00917 0.185318 1.00915 1.00917 1.00917 1.00917 1.00907 1.00277 1.00917 1.00917 1.00917 1.00917 0.0671729 1.00917 1.00917 1.00917 1.00681 1.00917 1.00917 1.00917 1.00917 1.00917 1.00917 1.00917 0.235078 1.00917 0.533485 1.00907 1.00917 1.00917 1.00916 0.000110922 1.00917 1.00917 1.00917 1.00917 0.3398 1.00917 4.32387e-06 1.00917 1.00917 0.752638 0.00628005 0.298329 1.00917 1.00917 1.00917 1.00917 1.00917 1.00849 1.00917 1.00917 1.00908 1.00917 1.00914 1.00917 1.00917 1.00917 0.000410215 0.0019794 1.00916 1.00917 1.00917 1.00917 1.00917 1.00889 1.00917 1.00917 2.09522e-05 1.00883 1.00917 8.84138e-05 
</DataArray>
<DataArray type="Float64" Name="cell variable 7" format="ascii">
0.357275 0.805214 0.978092 0.988818 0.413855 0.731648 0.944982 0.994685 0.786592 0.818915 0.993483 0.24144 0.895885 0.091923 0.989084 0.789622 0.334908 0.989411 0.998841 0.543895 0.953353 0.985799 0.2268 0.985845 1.00092 0.987264 0.290041 0.998525 0.983128 0.531783 0.992442 0.185875 0.103782 0.990411 0.262734 0.924335 0.988661 0.488241 0.695937 0.865788 0.422896 0.91048 0.997008 1.00172 0.804465 0.987088 0.980133 0.264653 0.991034 0.999503 0.963699 0.46057 0.259721 0.337987 0.973562 0.99226 0.0886341 0.95837 0.0788486 0.116913 0.203114 0.995708 0.986261 1.00151 0.87201 0.214434 0.0779382 0.968141 0.97158 0.947968 0.828165 0.967203 0.99644 0.984507 0.58928 1.00361 0.821805 0.667622 0.876672 0.855098 0.808066 0.980165 0.910934 0.997889 0.951959 1.00169 0.991878 0.0813708 0.0738515 0.306453 1.00149 0.162493 0.994971 0.992078 0.85435 0.786302 0.633332 0.999409 1.00014 0.994724 0.230311 0.992247 0.922196 0.993424 0.98225 0.982487 0.998131 0.912087 1.00344 1.00249 0.999787 0.987627 0.99489 0.172124 0.887905 0.869271 0.886845 0.804393 0.966248 0.142859 0.996819 0.999395 0.974211 0.96428 0.987688 0.777768 0.969761 0.985824 0.10127 0.997763 0.994612 1.00237 0.955764 0.790771 0.174715 1.00165 0.994101 0.996076 0.945385 0.96829 0.922008 0.0989326 0.900971 0.996832 0.995481 1.00397 0.95287 0.921346 0.970096 0.812727 0.646851 0.979721 0.723507 0.115625 0.962378 0.91184 0.996643 0.966983 0.990645 0.815305 0.881455 0.109939 0.129973 0.998061 0.947397 0.969413 0.176526 0.996302 0.995339 0.970553 1.00209 0.994013 0.781706 0.997327 0.95286 0.960718 0.999721 0.995783 0.557964 0.652741 0.998509 0.481302 0.999409 0.978562 0.74517 0.938631 0.98041 0.9868 0.360012 0.58017 0.999374 0.975103 0.0863829 0.983673 0.986005 0.977907 0.926956 0.962912 0.867885 0.994962 0.142821 0.952017 0.98832 0.967409 1.00069 0.227704 0.255368 0.905229 0.926812 1.00105 0.225806 0.802201 0.89681 0.233945 0.965959 0.544906 0.989109 0.987181 0.900885 0.864126 0.997658 0.998671 1.00028 0.822606 1.00321 0.139181 0.823381 0.340125 0.99635 0.148901 0.962923 0.118245 0.986201 0.511928 0.991957 0.663687 0.960394 0.908704 0.736426 0.184332 0.937093 0.978337 0.329428 0.347352 0.774006 0.285858 0.988558 0.15552 0.921969 0.990758 0.988722 0.288948 0.963751 0.311423 0.969235 0.926865 0.933796 0.914119 0.724735 0.990516 0.973522 0.955946 0.426674 1.00277 0.803638 0.399197 0.570965 0.667622 0.980165 0.89681 0.786592 0.962912 0.994685 0.214434 0.91184 0.987181 0.58017 0.887905 0.488241 0.979721 0.511928 0.881455 0.985845 0.978337 0.997763 0.802201 0.695937 0.967203 0.987688 0.963699 0.908704 0.46057 0.922008 0.991957 0.96428 0.731648 0.987264 0.921969 0.965959 0.962378 0.937093 0.91048 0.922196 0.481302 0.993483 0.633332 0.804465 0.996302 0.947397 0.855098 0.184332 0.995481 0.926956 0.997658 0.947968 0.544906 0.994101 0.0788486 1.00165 0.895885 0.652741 0.347352 0.543895 0.983128 0.865788 0.987088 0.995783 0.945385 0.74517 0.97158 0.996819 0.818915 0.968141 0.808066 0.994724 0.876672 0.970553 0.233945 0.311423 0.87201 0.998061 1.00149 0.96829 0.996643 0.777768 0.900971 0.990758 0.129973 0.805214 1.00105 0.176526 
</DataArray>
<DataArray type="Float64" Name="cell variable 8" format="ascii">
0.962156 0.00548041 6.78582e-06 2.70073e-06 0.303101 0.0135919 2.78869e-05 1.80258e-07 0.0043084 0.00285712 2.50564e-07 0.972028 0.000183894 1 1.26911e-06 0.00584984 0.666978 1.7492e-06 1.17405e-07 0.168883 9.21472e-05 3.03024e-06 0.981646 3.38566e-06 3.86375e-08 2.60472e-06 0.924592 2.27925e-07 3.9821e-06 0.166567 2.45757e-07 0.999812 1 3.35209e-07 0.929319 8.62799e-05 1.72227e-06 0.186675 0.020738 0.000534122 0.366499 8.62524e-05 8.32445e-08 8.36067e-08 0.00307463 6.06674e-07 7.40148e-06 0.964322 2.29104e-07 7.74736e-08 1.47484e-05 0.336447 0.914192 0.824573 4.41202e-06 9.93431e-07 1 4.12579e-05 1 0.999999 0.998866 4.63979e-07 6.32838e-07 4.82914e-08 0.000973078 0.998786 1 6.26108e-06 2.94792e-06 3.52615e-05 0.00157806 1.2827e-05 1.22923e-07 1.93221e-06 0.0951343 7.03403e-08 0.00262361 0.0604524 0.000603628 0.000987578 0.00175981 1.3207e-06 0.000186424 2.49827e-07 1.06984e-05 2.29733e-07 9.97445e-07 1 1 0.947461 5.74178e-08 0.999602 1.573e-07 3.42153e-07 0.00163446 0.0126922 0.124254 2.24638e-07 4.32264e-08 1.4207e-06 0.990018 6.0608e-07 0.000324206 5.58243e-07 1.68429e-06 4.23971e-06 3.78185e-07 0.000597944 1.49459e-07 7.82584e-08 1.56942e-07 8.44987e-07 9.28078e-07 0.999753 0.000146438 0.000711791 0.000385569 0.00190183 3.27773e-05 0.999979 1.99826e-07 8.50337e-07 4.63595e-06 1.68325e-05 1.17576e-06 0.00495907 6.28357e-06 2.1359e-06 1 5.78335e-08 3.64279e-07 4.52898e-08 5.85262e-05 0.00641749 0.999909 5.95308e-08 1.82997e-07 5.26882e-07 3.64391e-05 8.65944e-06 3.82569e-05 1 0.000216461 1.12051e-07 3.33584e-07 4.32193e-08 4.26536e-05 0.000208494 1.41098e-05 0.0022629 0.0818281 1.85247e-06 0.00919472 1 2.7198e-05 0.000212815 3.44971e-07 1.12807e-05 8.5071e-07 0.00374714 0.00144698 1 0.999982 1.29e-07 2.64013e-05 1.91815e-05 0.999984 2.36648e-07 2.01167e-07 1.48919e-05 5.16566e-08 2.95914e-07 0.0154594 8.15767e-08 3.95647e-05 1.57073e-05 1.13718e-07 4.88655e-07 0.124702 0.0868451 2.4749e-07 0.170768 1.35699e-07 9.19273e-06 0.0076483 0.000109019 2.87369e-06 3.01219e-06 0.917706 0.1384 2.09611e-07 4.3801e-06 1 2.36586e-06 2.95078e-06 1.14797e-06 0.000195722 6.56627e-06 0.000956208 1.50325e-07 0.999916 3.92516e-05 1.20816e-06 4.77426e-06 1.08968e-07 0.939696 0.971081 0.000146805 6.87099e-05 1.25275e-07 0.97802 0.00303742 0.000533206 0.995422 8.33792e-06 0.155249 6.93393e-07 5.52145e-07 0.000292339 0.000866582 2.16148e-07 1.45346e-07 1.46587e-07 0.00932202 4.43619e-08 0.999998 0.00443775 0.883754 1.32627e-07 0.999984 1.05768e-05 1 2.83e-06 0.213109 2.28586e-07 0.0718918 4.62745e-05 0.000266324 0.014563 0.999805 7.05087e-05 3.32422e-06 0.888357 0.697714 0.00420238 0.971384 1.88106e-06 0.999645 0.000118378 6.0358e-07 1.95705e-06 0.787055 2.50146e-05 0.972414 3.19886e-05 8.09021e-05 3.41473e-05 0.000138597 0.023953 9.89153e-07 1.02551e-05 2.63534e-05 0.147616 1.7804e-07 0.00350806 0.488904 0.093308 0.0604524 1.3207e-06 0.000533206 0.0043084 6.56627e-06 1.80258e-07 0.998786 0.000212815 5.52145e-07 0.1384 0.000146438 0.186675 1.85247e-06 0.213109 0.00144698 3.38566e-06 3.32422e-06 5.78335e-08 0.00303742 0.020738 1.2827e-05 1.17576e-06 1.47484e-05 0.000266324 0.336447 3.82569e-05 2.28586e-07 1.68325e-05 0.0135919 2.60472e-06 0.000118378 8.33792e-06 2.7198e-05 7.05087e-05 8.62524e-05 0.000324206 0.170768 2.50564e-07 0.124254 0.00307463 2.36648e-07 2.64013e-05 0.000987578 0.999805 3.33584e-07 0.000195722 2.16148e-07 3.52615e-05 0.155249 1.82997e-07 1 5.95308e-08 0.000183894 0.0868451 0.697714 0.168883 3.9821e-06 0.000534122 6.06674e-07 4.88655e-07 3.64391e-05 0.0076483 2.94792e-06 1.99826e-07 0.00285712 6.26108e-06 0.00175981 1.4207e-06 0.000603628 1.48919e-05 0.995422 0.972414 0.000973078 1.29e-07 5.74178e-08 8.65944e-06 3.44971e-07 0.00495907 0.000216461 6.0358e-07 0.999982 0.00548041 1.25275e-07 0.999984 
</DataArray>
<DataArray type="Float64" Name="cell variable 9" format="ascii">
0 0 0 0 0 0 0 0 0 0 0 0 0 0 0 0 0 0 0 0 0 0 0 0 0 0 0 0 0 0 0 0 0 0 0 0 0 0 0 0 0 0 0 0 0 0 0 0 0 0 0 0 0 0 0 0 0 0 0 0 0 0 0 0 0 0 0 0 0 0 0 0 0 0 0 0 0 0 0 0 0 0 0 0 0 0 0 0 0 0 0 0 0 0 0 0 0 0 0 0 0 0 0 0 0 0 0 0 0 0 0 0 0 0 0 0 0 0 0 0 0 0 0 0 0 0 0 0 0 0 0 0 0 0 0 0 0 0 0 0 0 0 0 0 0 0 0 0 0 0 0 0 0 0 0 0 0 0 0 0 0 0 0 0 0 0 0 0 0 0 0 0 0 0 0 0 0 0 0 0 0 0 0 0 0 0 0 0 0 0 0 0 0 0 0 0 0 0 0 0 0 0 0 0 0 0 0 0 0 0 0 0 0 0 0 0 0 0 0 0 0 0 0 0 0 0 0 0 0 0 0 0 0 0 0 0 0 0 0 0 0 0 0 0 0 0 0 0 0 0 0 0 0 0 0 0 0 0 0 0 0 0 0 0 0 0 0 0 0 0 0 0 0 0 0 0 0 0 0 0 0 0 0 0 0 0 0 0 0 0 0 0 0 0 0 0 0 0 0 0 0 0 0 0 0 0 0 0 0 0 0 0 0 0 0 0 0 0 0 0 0 0 0 0 0 0 0 0 0 0 0 0 0 0 0 0 0 0 0 0 0 0 0 0 0 0 0 0 0 0 0 
</DataArray>
<DataArray type="Float64" Name="cell variable 10" format="ascii">