<VTKFile type="UnstructuredGrid" version="0.1">
<UnstructuredGrid>
<Piece  NumberOfPoints="    3350" NumberOfCells="    2455">
<Points>
<DataArray type="Float64" NumberOfComponents="3" format="ascii">
13.7446 34.639 0 
16.6913 14.3286 0 
-19.0478 -22.8224 0 
42.8418 19.9917 0 
17.7227 5.52962 0 
-23.1476 1.97752 0 
-31.0581 31.901 0 
58.8825 23.8863 0 
56.3112 -3.7116 0 
3.9834 -52.1807 0 
27.8534 -1.79409 0 
6.22983 32.9125 0 
0.16327 -62.2055 0 
51.1475 -13.1335 0 
29.8299 28.6462 0 
6.05516 -20.6323 0 
-43.4101 37.4698 0 
-13.5665 35.958 0 
-49.8762 25.9934 0 
-47.97 28.0226 0 
-7.56732 56.3499 0 
38.5616 16.2143 0 
55.7997 1.22263 0 
12.4545 1.93892 0 
2.9089 -61.7275 0 
-23.8131 23.2003 0 
-16.3077 -23.1512 0 
17.5317 -53.2032 0 
17.9142 -19.4678 0 
-2.29414 -45.3178 0 
3.57694 -37.9683 0 
-34.327 -38.4022 0 
-19.7101 -37.576 0 
-58.7186 -4.06284 0 
4.15823 -34.6201 0 
-13.2416 -28.6474 0 
-15.9118 51.1738 0 
18.5576 13.5559 0 
-10.3295 8.93537 0 
-42.4714 5.78449 0 
-33.1012 -39.2459 0 
-15.1416 -41.3304 0 
-0.719617 -20.7762 0 
-44.524 -22.8369 0 
-25.7074 41.1657 0 
-11.0084 46.3853 0 
-24.4676 -0.730372 0 
56.3007 10.7758 0 
10.2359 42.8767 0 
-24.5424 23.8346 0 
4.96828 39.8378 0 
-2.00861 -62.2599 0 
-51.0294 -18.8184 0 
39.2917 5.51073 0 
-37.2849 29.9513 0 
23.0649 44.5152 0 
33.8237 38.7141 0 
20.8225 20.0353 0 
25.6184 -54.491 0 
12.6105 -60.3288 0 
-39.1551 44.4609 0 
47.0845 -22.9641 0 
-1.37449 -62.1843 0 
-8.39322 -0.75432 0 
-23.357 49.7768 0 
30.9794 -16.8322 0 
48.7102 -21.0951 0 
46.78 -36.5459 0 
47.9313 -35.917 0 
-37.0502 24.0388 0 
29.1879 -7.7006 0 
-24.491 -11.1124 0 
6.71172 -53.8676 0 
-43.8749 25.0248 0 
34.6543 6.09781 0 
38.4835 -5.69634 0 
-56.8187 -19.6823 0 
-36.685 25.484 0 
-8.79301 -41.4567 0 
14.6626 2.7336 0 
-7.07238 16.9154 0 
20.3503 30.606 0 
-21.1051 -21.1892 0 
-39.1684 15.1359 0 
-1.57297 -16.5882 0 
3.61669 53.4547 0 
25.7591 -12.3607 0 
-53.9689 23.2582 0 
25.4079 29.5709 0 
-2.2195 -42.0426 0 
-42.9407 -24.8773 0 
-13.7185 17.5159 0 
46.6865 12.3526 0 
15.7021 25.215 0 
-45.8342 -19.3129 0 
50.5638 16.4857 0 
62.1871 -4.79548 0 
6.33861 -47.4134 0 
43.228 38.4579 0 
-48.9875 3.34279 0 
15.2383 -59.9473 0 
-4.24218 1.85564 0 
-29.7089 49.0106 0 
-30.296 -9.67494 0 
26.2813 1.71674 0 
-28.7289 -0.495285 0 
31.0811 31.6144 0 
22.8081 -1.71772 0 
44.2128 21.38 0 
-39.585 33.538 0 
-2.5437 -7.81028 0 
-36.5107 25.7427 0 
-15.2835 10.8447 0 
56.7288 -16.9916 0 
34.4524 37.1695 0 
-0.321519 -29.3389 0 
-37.8928 44.9113 0 
15.8848 -52.6687 0 
-11.5278 -47.9972 0 
-5.19979 56.5834 0 
64.3165 13.5089 0 
15.2826 -1.34811 0 
-49.7793 27.209 0 
-2.06308 24.4458 0 
16.5813 -50.332 0 
-3.22357 -4.64849 0 
-34.3364 -45.269 0 
37.0073 21.4654 0 
10.1457 11.8475 0 
-56.2628 -9.24845 0 
24.2681 48.8998 0 
-47.1232 -2.64705 0 
23.4811 8.84 0 
-25.4059 -40.003 0 
-8.68664 -5.63327 0 
-39.6409 5.25032 0 
-22.6407 -41.4308 0 
17.8637 32.0193 0 
9.21682 18.3659 0 
8.22899 -5.33995 0 
48.0177 -2.56143 0 
-31.6319 -50.3262 0 
24.2713 47.001 0 
-13.2557 35.6273 0 
-26.2954 -6.32193 0 
-24.9037 30.5586 0 
-57.4348 27.7308 0 
-51.275 -23.3954 0 
-54.0623 -4.17496 0 
0.315435 52.4895 0 
37.0007 43.4769 0 
14.0136 -52.0854 0 
-57.3133 -5.52535 0 
22.1556 -33.6723 0 
-47.7023 -39.752 0 
31.7414 20.651 0 
19.0789 39.5037 0 
41.5136 25.9047 0 
42.0563 32.7507 0 
35.273 13.8657 0 
-47.8109 -8.8066 0 
-26.2582 -31.2523 0 
41.6594 -1.01278 0 
17.4066 32.4532 0 
-7.14991 -60.3459 0 
46.548 -13.8678 0 
40.394 28.5356 0 
37.446 -38.6115 0 
2.75333 37.3832 0 
6.61764 45.7749 0 
56.4307 15.024 0 
18.5279 23.2809 0 
-43.1648 2.95727 0 
-27.5441 -54.9306 0 
13.003 -15.9962 0 
-19.3807 41.7785 0 
-30.375 53.8697 0 
-58.2223 5.69281 0 
22.787 -39.7655 0 
30.9969 -18.5928 0 
8.10874 -36.4262 0 
2.02954 50.5681 0 
-17.4916 45.7602 0 
-2.64697 8.91486 0 
-24.1891 40.9129 0 
-8.27168 47.6775 0 
30.6177 -31.1765 0 
52.3717 -26.7543 0 
23.3997 -22.6624 0 
-18.1018 -32.7285 0 
4.98987 46.779 0 
31.3976 12.6281 0 
-11.9138 -35.8459 0 
4.22352 61.1382 0 
-57.4269 11.1438 0 
37.3174 22.072 0 
13.0908 25.9499 0 
-41.3157 19.1568 0 
7.36458 9.10715 0 
52.3866 -25.8413 0 
13.2696 48.5737 0 
62.4237 -5.84946 0 
-29.9473 24.6842 0 
-31.2784 -31.7454 0 
-8.48121 -23.8912 0 
-3.57172 30.6242 0 
-54.0767 -29.1123 0 
45.7773 -36.5684 0 
-4.84003 -10.6967 0 
0.503939 -29.6437 0 
-10.5296 -48.7959 0 
-39.8281 -40.8639 0 
-20.8295 57.5374 0 
15.2239 -2.14945 0 
13.7958 52.6507 0 
42.0725 -25.9718 0 
5.96056 49.938 0 
-12.2475 39.3859 0 
-17.4526 27.2817 0 
-10.3775 54.7494 0 
-29.5111 41.2068 0 
-57.3136 6.83419 0 
49.838 5.31948 0 
-13.1623 15.5619 0 
25.6689 51.338 0 
34.5213 6.48074 0 
35.2548 -24.8675 0 
32.697 34.4465 0 
32.9067 -43.8041 0 
-9.4484 48.3266 0 
-4.69798 42.8331 0 
34.9566 -4.55609 0 
-28.9176 7.84205 0 
-38.9193 14.6456 0 
-53.9072 -30.4222 0 
-34.9983 4.91393 0 
29.4396 50.9045 0 
-16.4392 15.0343 0 
-50.5358 24.7997 0 
-44.4001 -34.9602 0 
-25.9539 -36.4803 0 
-2.20939 44.5871 0 
-40.3967 -14.9048 0 
15.1704 -2.37806 0 
47.0168 -23.7731 0 
-7.39255 -17.7401 0 
4.35697 26.2859 0 
-11.7634 -44.9243 0 
-20.2351 39.2505 0 
-12.8144 -27.8716 0 
-54.5622 0.782648 0 
38.0603 -43.0457 0 
15.6833 15.5191 0 
57.2272 -22.1969 0 
15.8614 -44.3511 0 
-19.1242 -49.3739 0 
-37.6002 -30.8914 0 
-9.27569 25.6106 0 
55.7927 -3.12113 0 
-30.8 -30.6586 0 
-35.358 -38.3234 0 
12.2433 -15.3849 0 
22.4389 27.6383 0 
46.8853 -2.35334 0 
8.19093 -34.2 0 
34.0793 -21.6747 0 
-17.5688 21.1322 0 
-28.8074 -44.7285 0 
-15.9098 1.53519 0 
-47.0224 -32.8747 0 
-27.7735 56.0408 0 
-26.7536 -24.2079 0 
-30.471 -4.74671 0 
-47.1233 -42.3535 0 
30.8939 20.2226 0 
-0.0949304 -38.8098 0 
-34.0256 -47.0935 0 
23.891 -3.67513 0 
-23.2644 48.2533 0 
-12.7331 -10.3818 0 
-17.3639 37.5699 0 
10.504 36.7892 0 
-10.7378 -35.1769 0 
37.1022 -9.59956 0 
18.9852 -12.8027 0 
-18.1021 51.4387 0 
51.3591 -2.3527 0 
-55.3965 -18.8502 0 
41.7839 -7.78945 0 
-30.2764 20.4008 0 
-38.8388 -4.14723 0 
-8.70956 -52.3916 0 
-7.00028 35.7853 0 
-36.3542 34.1495 0 
-28.9862 -44.4581 0 
7.22557 6.60953 0 
-23.7804 -55.4353 0 
0.668786 51.3862 0 
-21.6078 29.2528 0 
-10.7145 -58.6633 0 
-15.4353 15.5656 0 
14.3119 40.0252 0 
-14.5964 -58.8013 0 
45.1202 19.6478 0 
-51.5882 16.2686 0 
39.7107 -33.3061 0 
13.5133 62.2828 0 
3.4302 27.1084 0 
18.3367 48.8185 0 
-9.9807 -10.5028 0 
56.1039 15.257 0 
-17.7054 -2.66594 0 
-59.1079 -0.103611 0 
24.4185 -54.8957 0 
29.1502 -10.2535 0 
-48.5478 8.81208 0 
-32.0162 26.1987 0 
-11.6325 -26.7353 0 
57.8229 -19.0902 0 
38.6336 14.0386 0 
16.4381 42.3126 0 
57.3667 -13.2192 0 
16.2923 -37.926 0 
45.4878 3.77951 0 
33.4626 42.8104 0 
-1.06267 -5.73857 0 
-19.3381 -16.5083 0 
13.7974 -43.8176 0 
37.2604 20.6195 0 
-49.4086 2.41323 0 
33.91 -23.0901 0 
-38.8473 -4.18525 0 
4.10152 -16.8305 0 
-18.0216 42.3694 0 
35.6252 51.1953 0 
35.5534 -36.825 0 
-51.8865 15.4973 0 
14.4556 -31.0023 0 
-0.0623342 62.1041 0 
-38.8617 32.1683 0 
-9.29327 55.7035 0 
-0.70575 28.4636 0 
34.0787 -22.6606 0 
1.81033 37.316 0 
-13.2919 -58.8307 0 
-33.4306 26.0431 0 
-3.97943 33.9201 0 
1.3582 -18.7186 0 
-15.9982 11.3726 0 
52.2637 16.9048 0 
49.6353 7.35127 0 
-30.0626 11.1683 0 
-27.7886 12.0989 0 
-5.68983 -11.0085 0 
15.6312 -21.2584 0 
-29.9058 43.2234 0 
9.05203 57.1463 0 
-0.139484 52.6306 0 
-11.5325 -26.3007 0 
-19.3082 22.5114 0 
10.9224 -11.4477 0 
4.27247 26.4347 0 
-57.1211 12.7414 0 
-35.9001 10.922 0 
23.8384 -25.9205 0 
5.55269 32.4622 0 
-51.7475 3.16808 0 
32.3011 44.47 0 
-36.8809 1.4555 0 
1.90744 -0.94749 0 
-4.80367 -35.6067 0 
33.8564 9.88352 0 
-27.2969 -55.0187 0 
-33.2442 18.5799 0 
7.51273 -35.9657 0 
-38.7301 -44.3015 0 
0.890686 43.4573 0 
0.72007 -62.2703 0 
-19.5002 22.8845 0 
5.87522 -10.0824 0 
61.9137 12.208 0 
45.3469 30.5252 0 
23.3147 16.0252 0 
21.4503 10.3319 0 
14.4961 -14.8696 0 
-51.1932 30.8032 0 
-19.3469 8.21069 0 
41.5554 -14.116 0 
-17.4842 58.1316 0 
-14.2741 -18.0545 0 
-48.255 21.7825 0 
-7.94077 6.66512 0 
15.6289 54.4684 0 
-32.0071 -12.1492 0 
31.1959 -15.9128 0 
28.8394 -7.52438 0 
-11.2166 8.8761 0 
16.4563 -14.1074 0 
-21.706 57.0414 0 
-34.1009 -46.8651 0 
-11.7646 29.5868 0 
-31.7439 -43.0787 0 
-6.05219 38.0155 0 
-20.9307 -57.1284 0 
5.23403 -53.7888 0 
-22.23 -49.8309 0 
-23.044 28.6754 0 
-43.3277 19.3789 0 
-7.40272 -17.0239 0 
21.6289 36.3142 0 
-40.5784 -30.3645 0 
-9.61054 10.6559 0 
52.1544 34.102 0 
-46.9835 35.8116 0 
12.1303 7.28091 0 
-26.8823 34.6605 0 
-9.50178 -0.144493 0 
0.31683 16.7587 0 
-11.5366 -45.7983 0 
-11.2016 -2.52448 0 
27.3231 -45.1746 0 
-3.27762 0.221352 0 
12.9416 5.50993 0 
43.4341 22.5302 0 
17.9706 -58.8672 0 
-4.71696 41.0393 0 
8.83344 -37.3975 0 
-12.129 -17.9525 0 
-45.5838 36.8188 0 
14.4329 24.9358 0 
30.4609 -49.7072 0 
31.0076 5.65357 0 
-0.846669 17.2062 0 
-17.3613 15.7253 0 
-37.0923 -2.13846 0 
27.7397 -34.3703 0 
-13.9712 -2.22008 0 
10.5059 -10.6657 0 
-42.1818 -6.99513 0 
-56.1725 9.41563 0 
-18.6468 -31.9239 0 
9.58145 -52.435 0 
12.8008 32.6975 0 
11.664 -31.724 0 
35.7298 -36.4595 0 
-44.3865 -36.792 0 
-20.3884 -13.2348 0 
-47.7617 -40.6101 0 
-19.9056 -31.2978 0 
-0.246519 17.555 0 
-30.5509 -8.76034 0 
47.2511 -21.728 0 
57.6724 2.63608 0 
-36.2949 -22.4244 0 
44.0572 38.6986 0 
33.6062 -37.5108 0 
29.7088 -50.2013 0 
23.9321 -34.5627 0 
27.7246 -1.42888 0 
30.1405 18.0497 0 
-49.3816 -4.99383 0 
-46.2341 -33.1469 0 
56.0817 31.3367 0 
-0.294259 26.5986 0 
-0.775388 38.807 0 
22.3258 -40.4335 0 
-0.0956786 3.35159 0 
49.5682 24.1635 0 
46.9893 11.9066 0 
25.4705 9.66506 0 
-52.7675 -19.7297 0 
2.2442 11.7062 0 
27.2474 -44.0321 0 
19.0083 22.7994 0 
18.4005 -5.82533 0 
-15.0934 -35.5916 0 
-2.67835 -37.579 0 
-16.6423 28.1913 0 
26.0399 -28.7687 0 
5.08157 40.1706 0 
40.0974 40.6454 0 
-8.5249 7.56597 0 
22.9323 -33.698 0 
-18.841 -9.90582 0 
5.01352 -58.146 0 
-13.9551 -9.28776 0 
-12.4989 -11.3857 0 
46.9587 -11.1403 0 
8.93057 -23.0692 0 
-14.6301 -42.6333 0 
36.5239 4.53407 0 
-47.4611 -27.9574 0 
-4.93387 56.5734 0 
[...]
<CellData Scalars="wall variable 0">
<DataArray type="Float64" Name="wall length" format="ascii">
1.81064 10.9571 1.00407 0.183085 11.064 0.363745 0.213244 4.12656 0.642569 5.44556 1.21721 9.20829 3.59636 6.37442 0.846758 1.048 1.82661 3.51409 3.58422 3.61468 8.47994 0.375339 1.33755 2.96774 2.89552 2.54802 0.787891 1.09887 3.69098 1.01522 4.85483 5.25358 0.840984 9.22724 2.71702 0.937613 3.26295 3.70425 6.26574 0.413519 5.34508 2.84817 1.47834 2.4946 0.759084 8.31968 3.22523 5.32914 1.83088 2.67087 0.840984 0.568982 4.72578 0.355317 6.84399 3.74175 0.354634 3.24657 6.55493 1.52658 1.99967 2.0741 1.90544 0.664996 4.62551 5.35651 1.74783 7.28277 0.435162 2.04823 1.32797 7.26636 0.995694 1.26631 3.76573 0.70632 5.67207 1.61923 3.08328 3.99148 1.89821 1.76128 8.5048 0.334743 1.32672 10.5212 0.955405 2.23639 5.11451 4.5955 4.13778 2.07291 2.7935 5.17415 0.71526 2.73683 0.979548 5.19952 0.0300379 2.50548 6.85977 0.604871 2.0376 0.752479 8.64564 0.713566 4.09033 0.463889 5.01372 0.706468 2.46579 9.21656 1.83218 2.65597 0.801517 5.19448 3.18907 0.312693 8.87382 1.39938 1.53177 2.18443 0.962994 2.08095 1.64042 0.145117 8.00363 0.883185 8.07261 0.803888 3.1683 3.09439 2.51122 3.48031 4.42403 4.48494 3.35744 1.64115 2.93501 1.79483 2.37667 1.09065 1.05958 3.07869 0.979911 5.9999 1.46896 1.29204 0.979911 4.33081 5.55151 0.347867 1.02202 9.04375 3.8328 2.89029 0.89828 5.13698 6.38438 0.406812 3.43787 6.77574 0.432102 1.71638 8.47994 1.63804 5.69194 5.14262 3.49812 4.18682 1.2777 5.41682 4.03066 0.322103 4.30839 8.13034 3.59202 7.07298 4.87678 5.77738 3.19217 9.79744 1.33039 9.06797 0.504233 3.31975 2.79385 2.6914 3.14066 1.17737 0.878724 4.78652 5.61288 0.601623 1.39938 3.8335 2.69888 7.15844 1.05958 2.00111 3.54034 1.52689 2.16018 0.458492 7.03156 3.68641 6.68803 2.50074 0.492341 1.8479 2.55836 5.31181 0.70632 0.976479 1.94832 2.06289 6.29638 0.118861 13.8912 0.732247 0.62524 5.04373 6.65214 0.236467 2.11032 1.06115 1.56439 2.21157 0.0300379 0.269566 4.72604 2.40817 0.643412 6.04438 0.178869 9.17802 1.19564 3.42561 7.37585 2.10384 6.42569 5.01372 4.9656 1.14254 9.88222 1.26525 0.804123 2.25656 5.49345 3.63354 0.107808 0.956915 2.25821 0.504233 0.366021 4.07558 1.04162 1.9493 6.34259 3.55783 0.404964 1.21324 6.91806 1.09131 9.11682 0.544694 2.84632 3.97527 2.98422 0.72819 7.00552 0.469269 5.76593 5.66603 6.39288 1.017 3.42561 2.15598 3.70177 5.87278 4.21907 5.55475 0.88911 2.10412 5.31167 2.1582 9.5313 4.50302 7.79327 1.03434 2.34305 5.43156 0.236467 6.24768 2.56676 1.04118 3.14 1.55995 1.10669 3.40979 1.17882 0.355317 4.22361 0.469269 4.33396 1.38879 1.77066 2.55836 2.4006 4.91224 5.08182 2.92537 4.72578 1.01332 2.99506 3.68259 4.15203 2.12759 4.02297 8.8427 8.07055 1.28432 7.15951 2.54503 4.1081 0.664996 2.96776 0.607168 0.347867 2.91528 1.34278 3.71078 5.0357 11.2489 3.56905 1.52559 1.25387 1.47142 4.03066 4.71413 1.53741 6.46154 4.62405 6.46769 1.71638 6.71335 0.0603557 7.10267 0.995694 0.128387 0.813656 2.54378 0.375339 0.939022 8.7799 1.20903 1.11142 6.35534 2.23518 1.53572 2.06025 11.2127 0.912607 2.53826 5.17301 5.13909 1.84462 3.40792 0.772047 1.46064 7.12629 7.27998 1.09922 8.57017 1.80103 7.79327 3.10946 0.803888 7.06733 7.79789 0.232961 2.68002 2.01498 0.922774 5.05198 5.05475 0.964259 5.23101 1.00268 9.8483 1.94832 7.98999 1.08888 2.15061 3.97595 0.33831 1.84974 3.48942 5.58796 4.62455 0.982916 1.85324 3.74175 2.19043 5.17301 5.06386 0.71245 1.62013 0.643412 4.46447 2.08173 1.53326 9.02088 1.63683 4.70538 5.54263 1.88349 0.213244 5.39077 2.23972 2.30722 0.925706 4.47479 0.518281 0.689921 5.3679 0.353115 9.63262 1.50397 1.50281 2.06289 9.8483 2.46049 7.34824 1.40411 1.32885 0.841615 8.16202 1.15917 2.83133 5.25358 1.99145 3.14066 1.87853 4.11206 0.462102 3.26893 3.44423 0.389702 0.929081 3.15609 1.32885 6.5867 2.93969 4.54767 1.33711 0.860178 2.24288 7.45486 2.97721 3.17911 2.07291 1.2991 3.02468 6.72288 3.26947 6.27053 1.35098 3.00187 0.492341 2.25576 4.08085 2.15061 1.24844 3.63592 1.86541 5.11451 0.253021 6.32182 5.31092 0.230742 9.30906 1.83309 1.61923 5.77132 3.54427 7.91666 5.54131 2.54802 2.83133 2.57694 4.37199 0.551155 5.17448 3.25226 3.94235 1.39832 13.8912 3.34099 2.8252 2.16065 0.868952 3.48031 6.62054 2.26634 11.1953 2.18443 10.3723 0.300688 10.087 2.56676 2.93026 3.29981 0.198362 1.74963 4.22361 6.55493 0.161931 1.76439 5.76593 3.29981 4.66515 5.04373 4.35844 1.86449 11.5606 0.971401 11.4962 0.348635 0.850853 1.25776 3.95179 0.891495 8.03234 4.49878 3.55979 4.72388 3.19847 0.801517 3.47572 1.29011 7.10267 0.79646 3.59202 4.24735 5.60403 1.74783 0.49353 3.48942 4.37057 0.89828 0.90728 2.20632 5.97428 4.0881 1.11142 1.09354 0.925706 1.34245 1.30439 2.18077 3.87344 4.64166 5.05475 4.13242 0.962994 11.1953 0.680847 1.43524 5.9999 1.29204 3.24668 4.42037 2.25656 1.86046 2.94964 0.334743 2.26138 3.73272 2.70149 5.87379 7.94184 5.08182 0.680402 4.67239 0.813656 4.51248 6.58889 0.527387 3.68641 1.77066 0.508597 6.93713 3.34852 0.834813 0.0565695 0.344474 8.03972 0.330636 3.39065 3.22416 0.792548 3.86609 0.427935 5.1291 5.34541 0.290063 2.95666 1.81064 1.88349 5.33861 3.52851 2.59693 7.6175 0.618411 6.67685 7.98999 0.976479 3.76573 7.34153 1.08888 7.34153 1.26631 2.0574 6.34631 0.80817 1.24844 6.62196 2.97142 5.06458 6.85977 2.93835 5.74008 0.553984 5.10685 0.544694 2.44412 1.04957 0.954794 3.83145 1.45666 2.01006 0.713566 6.41039 0.244759 9.93232 0.538461 0.987097 6.62196 2.50548 2.21157 8.58275 2.76559 3.4483 1.22392 3.31481 1.73611 4.48494 3.44423 0.471743 1.62314 2.26997 3.48224 6.90523 1.0662 0.277497 0.971401 0.633024 1.98788 3.09963 3.30381 1.80437 7.79789 3.33962 7.00069 0.198362 4.35844 0.62524 2.17071 2.53724 0.611798 5.87587 1.26946 1.34278 1.00263 2.824 3.19217 2.25821 0.251023 6.19935 6.35534 4.0881 5.68888 0.780315 5.26065 11.2489 0.575612 2.1465 4.62249 0.679594 1.79483 10.05 1.6855 0.954794 5.23626 6.22241 0.22117 2.53168 5.23679 1.10669 4.77567 5.16916 3.40649 3.11418 2.99521 1.7937 4.95043 6.92015 4.79848 1.27351 0.311801 5.17863 4.19107 6.15408 2.65341 5.80033 1.10143 2.95666 5.55759 2.59223 0.842511 10.9571 0.94062 12.8449 1.25387 1.61412 10.9165 1.58872 1.32672 2.94964 2.81654 3.26947 7.45636 1.99723 0.90728 2.89029 0.720147 3.6854 0.68593 1.53662 5.73912 5.4207 1.5323 0.769079 1.15917 0.147855 3.66779 3.55444 3.1097 0.873562 1.68535 7.37999 9.22724 2.67087 5.49345 4.42037 4.01626 0.435503 5.95598 1.02779 5.26062 4.33609 1.26525 4.69737 1.95758 1.48383 2.78968 6.18721 1.21324 1.38427 2.62434 0.744954 4.44196 2.7094 1.63855 0.895088 6.45147 8.7799 2.824 8.47294 2.16018 1.66269 9.79744 5.68888 3.87344 0.917765 7.49784 1.71786 0.462102 9.19227 2.62434 6.72978 0.87847 2.57694 4.10699 6.46769 0.616119 2.85131 4.25939 3.44142 5.56901 3.31883 6.5223 1.8151 5.58796 0.49353 3.742 0.406812 3.61468 4.23961 3.97515 2.98315 0.344474 6.58974 4.40653 1.91797 0.736638 0.398205 6.7513 3.76068 8.2625 0.388067 6.5223 0.473416 4.2108 0.546401 8.13034 2.33009 7.88871 2.71851 7.97914 0.850853 7.05978 5.42844 3.65824 2.33452 1.05165 7.15844 1.19338 3.56905 1.66996 5.61721 0.785525 0.714598 2.69978 5.60624 4.81634 11.2657 0.330954 7.45486 2.35294 0.573678 5.12588 3.22416 3.15609 8.13378 0.720147 3.8328 2.63609 0.841615 0.251023 6.34259 2.67437 1.42351 0.60092 6.84368 5.34508 1.80357 1.55756 7.96125 6.13391 2.81403 0.321164 4.73832 4.18682 1.2859 3.34852 2.71793 1.22699 9.11682 0.979719 1.18672 5.56901 0.88233 2.33009 0.992025 5.55151 4.1386 0.458492 8.47294 1.00263 2.91528 0.128387 7.26636 1.34998 4.51248 1.38879 7.94184 3.64851 7.0655 0.736638 0.605822 1.21721 4.64196 3.0708 2.86482 6.34631 1.51613 2.59223 5.60793 0.283732 5.72145 2.4006 1.8479 3.00187 1.11117 4.75687 1.82661 1.4233 2.38092 6.75417 8.13495 0.807038 7.16078 0.706439 3.69098 5.53252 0.16569 5.13698 4.37057 1.84974 8.52428 0.450677 0.600954 6.9821 1.99967 2.41789 8.77585 2.2786 5.16916 3.73298 1.09922 0.984057 2.49629 2.26487 3.65824 0.457704 5.34541 3.4527 7.79164 1.47834 7.78304 0.789681 0.71245 3.96198 2.93501 1.84534 4.47479 1.09354 1.20903 6.45147 7.80079 0.432102 7.31414 0.760499 4.5395 0.554572 6.71335 6.26574 5.192 0.145987 0.922774 0.647108 4.41146 1.01332 0.568982 0.682821 11.0805 0.827764 2.95834 8.09235 1.30439 3.26596 5.53074 0.435162 3.62992 0.861948 2.11556 1.7617 3.54034 3.49431 3.55444 7.66198 0.575612 5.0357 8.38106 2.66421 2.01951 3.1346 3.57336 5.80033 1.61104 3.59636 4.75295 0.678754 6.71103 3.57025 5.25463 4.33504 5.36631 1.64798 7.12629 1.75646 2.34305 7.19241 6.63704 3.70171 1.99756 0.300688 0.779716 9.5313 2.00361 2.79418 0.648788 3.70171 0.336941 3.03144 4.72388 0.536976 4.54518 0.604871 5.06458 1.31924 3.63523 4.80349 4.36001 1.60802 2.1221 3.48224 1.08178 4.70538 6.62128 1.59742 0.411868 3.97515 4.02904 4.21165 1.82494 7.30838 2.68363 3.14 4.55803 3.66067 2.48669 6.00145 4.69737 9.88222 3.94071 2.93969 0.330954 3.39065 2.44007 7.34824 0.873562 7.39267 2.37667 0.22117 1.10523 5.15959 0.577875 4.92765 6.72978 1.38427 0.404964 6.21048 1.01808 8.0066 1.89821 3.13793 2.40676 3.78872 1.14444 3.47792 6.5867 1.40411 2.44007 0.330636 2.9374 0.769079 7.36506 4.54767 3.94071 2.46049 2.63609 6.38438 0.16569 1.05427 2.84109 0.147855 8.16202 0.647108 5.23101 6.71747 0.356008 9.21709 1.05427 8.52428 0.33831 3.60243 7.99982 2.62302 0.627377 4.3446 0.680402 4.91224 5.72145 4.5896 0.60092 2.39589 2.71793 6.93713 5.78532 1.51049 3.52851 1.28727 6.71103 0.19372 5.22812 5.23626 1.04957 3.15427 4.59664 3.24657 8.71113 0.453951 8.8427 1.15461 0.161931 0.511587 4.68796 0.691611 7.31414 6.77574 2.92683 6.10333 3.34099 2.59582 2.81817 0.0603557 0.554572 10.9538 0.818837 1.60802 2.19484 0.949814 7.07298 0.79646 2.81352 4.09886 1.55756 2.55197 0.706468 6.42569 4.04553 4.90856 2.81403 2.39589 1.42351 1.27351 8.00244 0.937613 0.55997 1.27507 2.1776 8.41589 1.68535 1.83088 5.56954 0.551155 0.118861 8.53165 1.99475 5.49907 6.9573 5.87587 0.573678 6.87618 4.06931 4.72604 1.87271 4.52279 0.529381 2.81352 2.10384 3.85127 0.283838 9.17802 7.26187 1.53572 0.203154 1.25588 0.534737 4.81634 4.29178 5.1052 9.63262 1.35508 0.741837 6.29691 1.50372 5.61288 1.05165 1.6695 2.54944 5.53443 2.9992 7.5599 0.846758 7.38599 2.10913 1.61467 1.94354 1.00252 3.95179 3.34928 6.48893 4.41197 7.02038 2.81817 1.19485 3.41751 1.84462 1.59742 0.206911 1.85053 1.42088 1.08292 2.66421 1.64725 7.92369 6.20188 5.53443 2.88734 3.78509 5.49907 0.611798 6.84368 4.5896 0.508597 0.688631 1.92514 0.527387 1.90859 0.634002 0.696154 2.92137 1.46424 3.29689 0.736128 6.68803 4.5395 5.47425 1.53662 1.7671 10.9538 0.178105 0.618411 3.42438 5.36631 0.892791 2.79418 8.32094 4.09033 2.01006 0.93594 4.2466 6.53254 2.80417 5.60928 3.20791 0.634002 5.31498 1.34998 1.32797 0.992984 5.31498 1.90859 6.58889 5.19448 3.19847 3.03144 7.55415 4.25441 4.75687 4.00333 1.63804 4.73832 0.798667 5.175 1.10523 6.22241 5.22812 0.613637 2.59582 6.62054 2.51122 4.7947 2.7935 0.563755 0.0667184 1.19485 3.89551 4.23961 2.89552 2.7229 2.9043 1.04162 1.93111 6.29638 1.50281 0.820742 1.13657 0.137428 0.94062 2.96069 2.1776 4.49878 1.12372 3.63592 0.80817 2.86482 0.607822 7.05978 2.53411 4.29178 5.60624 2.7415 3.29689 5.44556 5.47133 2.93049 4.64196 4.42168 4.75295 3.58422 3.55017 1.98788 4.1081 5.90571 2.08173 0.849126 4.62551 1.04196 3.45592 1.0662 7.06733 8.07261 3.64601 1.45862 2.54434 4.858 1.29011 4.14093 3.73298 4.77567 1.55995 2.68363 0.509288 8.57017 0.411868 7.92369 1.00812 0.688631 8.03972 2.98315 6.94164 4.62455 1.8151 3.89551 4.07558 6.09154 0.820742 1.50397 5.1052 1.17436 5.85123 0.117706 8.42443 1.82494 2.17651 4.72848 3.64851 2.72238 0.312693 1.59894 8.30024 2.99521 1.00632 1.45862 10.6979 1.27507 1.45626 5.77132 5.67207 5.31181 1.93111 0.427935 4.88506 3.74675 1.51246 0.891495 1.00252 5.82886 5.32237 4.14093 3.47572 2.65597 2.03189 4.07384 2.16065 3.61591 2.26487 5.82494 2.54503 0.743997 1.94213 3.4483 0.851713 1.53326 5.90571 2.14349 1.40575 5.11608 1.01522 0.706439 3.21091 2.15598 1.19564 0.283838 1.16388 3.24668 9.04375 3.12305 4.01626 2.94662 5.17448 5.56954 5.32914 2.9374 5.1291 5.82886 1.94354 2.84324 1.99756 0.648788 0.892791 7.19241 1.04118 10.087 3.50485 6.04438 1.62013 0.789681 1.95104 1.58253 1.09998 0.600954 4.93278 5.15959 5.175 3.18315 1.33615 6.72288 0.552491 5.53252 1.09887 4.46943 1.17882 0.532204 4.41197 5.13909 2.19043 6.84399 5.28425 5.11824 3.3358 2.01951 1.08292 4.57541 2.20632 1.99723 5.49684 4.68796 3.04537 8.87382 2.72238 3.0708 2.93049 0.81687 1.03434 1.80103 0.509288 7.30838 8.42443 4.00333 1.11117 1.35098 2.84725 0.782972 1.38062 5.69194 1.84667 7.23491 2.1348 7.91336 2.41492 3.57499 7.71412 0.917765 2.18077 8.09235 0.873619 1.26303 0.435503 3.12305 1.02202 0.607168 5.26065 7.59014 3.18907 7.55415 0.336941 6.63704 2.1582 0.81687 0.117706 1.33039 1.66269 1.52689 1.7617 0.782556 3.60243 3.97595 4.28609 5.00381 0.751854 6.65537 1.61467 5.22951 6.3227 0.873575 2.25579 2.26138 8.5048 0.857075 2.43867 7.47293 0.40925 0.772047 7.22127 1.53612 0.183085 4.7947 3.09439 4.2019 5.17415 1.20304 1.59894 1.33755 3.48384 4.12656 1.69417 2.85602 3.26596 2.52848 5.87278 2.35115 3.27101 3.63523 5.14262 1.38062 3.47182 0.88911 2.49793 4.8268 5.10098 4.78652 4.13725 3.54624 0.93594 1.45666 4.24735 5.77738 0.595078 8.84411 1.59414 0.888716 5.82494 2.49629 2.65714 3.33962 3.42253 1.00016 2.53168 2.2786 3.61591 2.8252 6.10333 5.56096 4.80349 3.27101 2.11679 0.807038 0.552491 3.02468 3.57025 1.28727 6.67685 0.178105 0.610031 2.54434 1.00632 3.11418 0.740318 0.964843 5.17863 2.78333 1.61412 1.52559 1.19338 2.69888 1.02873 3.31975 5.10098 3.83145 0.741199 1.67249 7.74977 3.96198 9.02088 0.851713 2.76559 4.42403 5.60403 1.59414 1.25954 3.62992 7.28277 1.75646 1.46064 0.40925 3.59424 1.63928 2.11032 5.43156 3.70425 3.67607 1.64042 5.07208 5.192 3.54624 5.78469 2.14349 1.90258 4.2466 0.603865 7.91666 1.19144 8.43301 3.33444 0.721239 7.27998 1.64798 3.42438 7.6175 0.0667184 9.75378 3.20912 8.36138 2.06025 3.41751 2.85602 1.23495 0.547651 2.80417 0.992984 2.04823 5.53074 0.798667 9.70783 2.0741 6.9821 3.18315 0.763421 11.4962 0.277497 3.45592 9.84054 1.53036 3.8335 8.00363 0.607869 6.92015 0.964843 5.55888 3.42253 2.53724 5.25182 5.59795 1.17737 1.99145 4.85483 5.11608 2.62697 6.488 6.58974 0.0565695 2.71453 5.75343 4.21907 2.32932 1.33755 10.6979 3.64601 5.32237 2.47394 0.782556 7.66198 3.66779 2.84109 7.99982 9.84054 1.04196 0.883185 0.868952 4.07384 0.888716 5.55888 1.43045 1.74745 4.95043 4.55601 2.29981 0.959622 2.1348 0.919936 5.34946 3.25226 2.94662 3.22523 2.92537 2.57406 7.59014 0.679594 0.676302 1.53741 4.10699 2.80779 0.779507 11.2657 0.534737 0.742103 10.5212 1.58872 2.44412 7.00552 5.80073 3.15427 4.11206 0.593517 0.253021 6.71033 0.744954 9.19227 2.84324 6.48893 2.11387 0.471743 3.26893 3.47792 0.593517 1.87853 2.6914 1.31239 0.199666 1.04211 2.38449 6.32182 0.538043 9.6188 0.107808 4.70171 2.80779 4.25939 0.532204 3.40979 5.23679 1.00016 2.92683 7.02038 4.37235 6.3227 1.76128 8.0066 1.84667 4.22091 5.39077 0.363745 0.0402022 4.33504 2.20137 1.46424 8.75161 2.7094 0.939022 7.26187 2.53411 2.65714 0.984057 3.10946 4.50302 0.779716 1.74963 7.00069 1.66996 4.71413 5.41682 0.468335 1.88431 2.2178 3.93267 3.80871 5.09214 0.637529 11.0805 1.46896 1.43524 0.804123 4.33609 4.34996 10.05 3.99594 0.348635 0.763421 3.51455 3.94235 5.34946 5.18744 0.57515 4.37199 0.87847 4.92765 1.45775 1.13155 3.38419 4.79026 5.18744 4.99995 2.1465 3.1346 3.3358 1.66402 1.94352 6.25329 0.3839 3.4527 5.33861 5.54263 1.08178 2.26997 0.691611 5.49684 5.73912 5.47425 0.760499 1.43045 5.25182 2.17071 0.732247 1.39832 3.51455 1.53036 4.51434 5.3679 1.56709 2.17651 3.66067 0.610031 8.32094 2.00361 3.55979 4.858 5.95436 7.22127 3.40792 0.721239 2.59693 1.51049 1.9493 2.9043 5.68245 2.66503 4.04553 2.67437 4.59664 5.80073 0.72819 2.31097 1.28432 7.01271 6.41039 9.21656 3.44076 0.87154 4.79848 0.607869 0.145117 3.67607 3.26295 8.00244 0.137428 2.78152 2.67125 2.71851 2.86079 0.322103 1.47142 12.8449 1.5975 5.66603 1.76439 1.15461 4.02297 5.91485 3.71078 1.26946 6.9573 1.92514 1.00812 1.64725 8.38106 4.72848 1.56709 0.689921 3.9922 0.398205 7.0655 2.67125 9.20861 1.65923 0.992025 7.97914 8.84411 4.9596 2.29981 4.58904 0.861948 1.25954 3.51409 8.13495 0.820075 3.09963 3.55017 0.613637 0.19372 7.01271 2.96776 1.90544 9.70783 5.42844 0.607822 5.60793 5.55759 0.290063 0.457704 3.78168 2.60632 6.91806 6.18721 1.91803 1.10143 3.57336 4.42168 0.633024 11.5606 2.57242 10.3723 1.53177 0.601623 1.50372 6.20188 1.04336 5.88247 0.203154 2.23518 6.19935 3.73266 1.33755 2.54378 4.67239 4.3446 8.01341 1.17436 6.29691 5.47163 0.774998 3.38419 2.71338 2.66503 0.762836 2.62302 0.283732 4.25441 0.321164 4.90856 1.12372 8.03234 1.51246 0.570129 2.76529 4.5955 1.86541 2.30924 3.68259 5.57823 1.53169 0.307088 6.15408 1.35508 0.353115 1.00268 4.08085 2.23639 3.17911 6.28932 2.11679 2.35115 3.70177 3.21091 7.16078 4.02982 3.69465 5.4207 0.577875 4.93278 0.450677 1.26082 8.53165 1.06115 1.63928 0.44535 8.43301 9.06797 4.28609 0.982916 6.94164 0.366021 1.69417 9.20829 0.605822 1.91797 2.1708 6.63721 1.23495 4.02982 8.77585 2.12407 0.860178 4.96589 1.13801 5.91485 2.12759 0.506495 3.93267 0.682821 1.34245 2.30722 3.07869 7.03156 4.1386 4.33081 2.41492 2.47938 2.19484 4.36001 1.63683 4.22091 4.56912 5.22951 2.10913 2.08285 1.53169 0.770757 0.356008 5.75343 5.48894 2.49793 5.55475 1.55616 7.37585 1.017 2.52848 1.31924 2.97142 0.987097 4.41146 9.21709 0.770757 5.57823 2.99506 1.5323 3.69465 4.96589 1.33711 7.36506 2.78333 0.311801 8.41589 2.96069 10.9165 3.44076 2.46579 2.55197 1.80357 0.413519 1.43857 8.78702 4.06931 0.917326 5.35651 0.849126 4.46447 2.40817 2.35294 2.24288 2.12407 2.41789 1.52658 0.917326 6.87618 2.20137 5.25463 0.740318 3.40649 1.74745 7.23491 0.389702 6.90523 2.1221 0.818837 1.7671 0.68593 7.4726 0.145987 5.07208 2.08095 4.13242 5.05198 6.71747 0.964259 4.64166 1.40419 5.00381 4.56912 1.09998 8.43594 4.52279 0.178869 1.55616 0.538461 4.84612 2.76529 6.69742 0.536976 5.56096 1.2991 4.13778 4.62249 6.25329 0.942247 0.819739 6.46154 0.676302 4.55803 4.33396 6.39288 1.5975 1.13801 2.23972 4.51434 0.518281 7.80079 0.895088 1.37243 6.7513 3.9922 2.78152 1.13657 6.09154 3.79234 0.685944 9.20861 2.93026 6.24768 6.65214 4.66515 2.96774 8.01341 0.627377 0.762836 5.68245 2.7229 0.88233 3.44142 0.388067 4.30839 2.86079 7.88871 3.1097 3.49431 2.00111 1.09065 7.39267 0.642569 3.48384 2.47394 2.03189 1.83218 3.04537 5.47133 0.774998 1.08479 4.46943 0.787891 5.54131 0.57515 4.79026 3.08328 1.83309 0.603865 3.08442 2.43867 5.57885 2.33452 7.79164 0.3839 1.62314 2.11387 3.34928 1.25776 3.86609 3.31927 0.752479 5.14738 4.88506 3.63354 5.95598 1.26303 2.57406 4.70171 0.779507 7.45636 2.25576 2.50074 0.736128 2.7415 2.69978 1.45775 6.21048 3.55783 1.22699 1.65923 0.685944 2.88514 3.08442 3.33444 0.44535 3.59424 7.47293 2.92137 3.76238 3.76068 1.37243 1.63855 8.75161 2.31097 2.98422 2.82396 1.31519 1.51016 0.743997 7.15951 4.13725 0.878724 5.59795 1.40575 5.78469 0.570129 3.74675 5.14738 2.0376 4.54518 6.69742 3.49812 4.8268 5.48894 2.71453 0.834813 1.2859 0.741837 6.28932 2.97721 1.33615 1.08479 5.47163 4.58904 4.55601 1.7937 8.30024 1.20304 2.11556 2.84817 6.13391 0.989613 1.95104 7.78304 3.91757 5.87379 0.881739 3.01139 2.10412 3.47182 0.782972 3.99148 5.57885 0.857075 1.00407 0.842511 1.51613 2.0574 3.79234 5.85123 2.71338 4.99995 1.13155 2.88514 0.919936 4.15203 2.30924 4.19107 1.91803 1.86449 3.99594 1.61104 2.65341 0.307088 2.08285 7.38599 6.37442 0.269566 8.64564 3.31927 0.792548 5.12588 1.87271 0.746667 1.37844 4.44196 6.71033 9.30906 0.989248 0.929081 7.4726 3.6854 8.13378 0.547651 6.63721 5.78897 5.60928 2.1708 8.2625 3.76238 0.696154 3.20791 5.78897 3.742 5.97428 4.57541 0.511587 3.43787 0.0402022 11.064 1.53612 5.95436 5.78532 0.678754 4.53022 0.332466 2.93835 1.6855 4.34996 5.26062 7.70221 3.13793 0.955405 0.742103 1.25588 5.88247 5.95852 0.463889 6.53254 1.90258 1.16388 3.85127 4.9656 0.595078 4.87678 0.949814 2.47938 7.91336 0.959622 4.9596 1.58253 0.989613 7.96125 4.09886 0.529381 8.43594 1.99475 1.26082 1.19144 3.54427 1.45626 0.55997 2.71702 7.37999 4.84612 8.58275 1.56439 3.50485 2.81654 1.86046 3.91757 2.84725 6.27053 
</DataArray>