<VTKFile type="UnstructuredGrid" version="0.1">
<UnstructuredGrid>
<Piece  NumberOfPoints="    3318" NumberOfCells="    2433">
<Points>
<DataArray type="Float64" NumberOfComponents="3" format="ascii">
11.1926 28.8774 0 
13.7958 11.9477 0 
-15.6494 -18.5092 0 
29.5771 -46.8457 0 
-61.0788 9.36189 0 
-18.8058 1.14595 0 
-45.4927 -36.3576 0 
48.6463 20.0777 0 
46.2339 -3.13133 0 
3.01691 -43.1461 0 
22.7301 -1.69432 0 
-4.71469 -55.8814 0 
0.142847 -51.768 0 
44.6644 -40.3661 0 
24.0121 23.4222 0 
51.9539 24.6621 0 
-35.2224 30.3835 0 
-10.8695 29.3361 0 
-41.2461 21.1784 0 
52.0147 -30.4522 0 
-6.27258 46.0736 0 
31.4789 13.6211 0 
45.4045 0.527825 0 
9.96706 1.24699 0 
2.39593 -51.34 0 
-19.5989 19.0986 0 
-13.5302 -19.1064 0 
-23.6776 50.7875 0 
14.0522 -16.1792 0 
-1.28736 -36.6571 0 
2.82234 -30.9076 0 
-27.6452 -31.6762 0 
-48.0119 -20.1595 0 
-48.1515 -3.32668 0 
-47.1968 -24.661 0 
-11.0868 -23.1149 0 
-21.8592 57.4347 0 
52.4983 24.9059 0 
-8.72336 7.30037 0 
-34.7354 4.80671 0 
-26.8568 -32.4939 0 
-12.0427 -34.1175 0 
-0.695681 -17.0924 0 
38.2705 -43.5387 0 
52.6248 15.0607 0 
-9.15331 38.1773 0 
-20.16 -0.841767 0 
46.5984 8.75427 0 
8.62646 35.0404 0 
50.2142 40.8479 0 
4.16836 32.8623 0 
-1.66323 -51.7561 0 
-41.904 -15.4058 0 
32.3741 4.53558 0 
-42.0974 -39.7072 0 
6.07013 -55.4118 0 
27.9306 31.1363 0 
36.2829 43.3556 0 
21.4748 -44.7142 0 
10.2233 -49.7053 0 
-32.3237 36.7289 0 
-58.5739 1.19369 0 
-1.12638 -51.6103 0 
57.0742 -10.6233 0 
-18.8307 40.6404 0 
-22.112 -55.1375 0 
39.6788 -17.1121 0 
38.7383 -29.806 0 
39.6862 -29.4575 0 
-30.1455 19.9742 0 
23.8692 -6.57639 0 
-56.9875 -13.2695 0 
4.85165 -44.3282 0 
58.5503 -20.7966 0 
28.8573 4.83434 0 
31.3782 -4.97967 0 
40.6383 -45.3765 0 
-29.7627 20.9427 0 
-6.75886 -34.4365 0 
57.6679 19.5366 0 
-57.2711 -0.00104487 0 
16.3653 25.1983 0 
-17.2325 -17.2556 0 
-32.3518 12.6811 0 
-53.7779 26.5145 0 
2.43598 43.8049 0 
51.7557 17.0472 0 
-44.2398 18.9175 0 
-51.5454 34.7287 0 
-1.16274 -34.0099 0 
-34.8719 -20.3828 0 
-25.9003 -53.0009 0 
38.4515 10.3175 0 
12.5602 20.8124 0 
-37.6466 -16.224 0 
39.4615 35.8868 0 
51.5079 -3.77659 0 
-54.5713 -2.35146 0 
19.6678 50.9641 0 
19.2649 -59.0768 0 
12.4716 -49.6492 0 
55.9302 -9.23426 0 
-24.5279 40.194 0 
-24.8878 -7.87836 0 
55.4075 -6.4031 0 
-23.4674 -0.639466 0 
25.4744 25.7936 0 
53.5246 -4.69211 0 
28.5251 -51.8431 0 
-32.1154 26.7712 0 
-40.343 -33.4621 0 
-29.6404 21.1032 0 
47.5002 35.8615 0 
46.9551 -13.8567 0 
28.2633 29.9917 0 
-0.385222 -24.0614 0 
-31.2313 37.0264 0 
12.8036 -42.9494 0 
-9.44621 -39.2101 0 
-4.48476 46.0581 0 
53.2514 11.7459 0 
12.419 -1.12033 0 
-41.1935 22.099 0 
-1.51628 20.3869 0 
12.979 -40.9563 0 
-17.1675 48.7701 0 
-27.7236 -36.9426 0 
30.5126 17.7676 0 
8.46638 10.2832 0 
-6.29875 55.5154 0 
-29.5357 -53.356 0 
-38.5697 -2.3246 0 
18.9562 7.50566 0 
-20.9041 -32.1721 0 
-17.7739 49.8774 0 
-36.3988 46.4883 0 
57.191 -10.7858 0 
29.7974 -41.8967 0 
8.10614 15.0675 0 
6.40788 -4.65352 0 
28.8684 46.6725 0 
-50.6468 11.1029 0 
19.8528 38.8461 0 
-10.5927 29.1039 0 
-56.1124 11.9109 0 
4.56649 55.4638 0 
-47.5697 22.9847 0 
39.5033 -45.5736 0 
-44.1012 -3.66523 0 
-0.162379 43.0731 0 
30.2721 35.1643 0 
52.0792 -11.996 0 
-46.9342 -4.38792 0 
18.4159 -27.6611 0 
-38.9886 -33.122 0 
-54.0871 -27.0716 0 
15.2072 32.6412 0 
33.9778 21.1414 0 
-42.3225 35.9331 0 
-33.5357 -49.273 0 
-39.0386 -6.85411 0 
-21.6661 -25.3871 0 
-54.6954 -30.5275 0 
24.3552 -53.2854 0 
60.6707 17.1255 0 
38.2277 -11.6434 0 
33.0605 22.9962 0 
30.5627 -31.5396 0 
2.58042 30.8867 0 
-30.1726 -44.4256 0 
46.3325 12.5204 0 
-46.379 28.8495 0 
37.9276 39.672 0 
-22.3666 -45.4608 0 
10.6237 -13.4202 0 
-16.2022 33.8918 0 
-24.7574 44.5527 0 
-47.9073 5.03508 0 
18.2581 -32.687 0 
25.2757 -14.9843 0 
6.1838 -29.8623 0 
1.12575 41.6095 0 
-48.432 -35.9269 0 
-2.94541 7.25496 0 
-19.8192 33.3854 0 
38.7931 -37.4269 0 
25.1236 -25.8556 0 
18.9552 52.0461 0 
18.7676 -18.0398 0 
-48.5518 -23.0887 0 
4.20984 38.6652 0 
26.3963 10.1955 0 
-9.84208 -29.3156 0 
4.07469 50.1224 0 
-47.2704 9.16169 0 
30.8496 18.1253 0 
10.5767 21.2458 0 
-33.5528 16.143 0 
6.23181 7.98112 0 
42.9477 -20.6421 0 
11.0327 39.5368 0 
52.095 -4.60551 0 
-24.6781 20.0923 0 
19.3261 53.0725 0 
-22.4911 -55.059 0 
-2.73435 25.1934 0 
43.9038 -43.379 0 
37.9012 -29.91 0 
-3.60157 -8.79677 0 
0.286598 -24.1758 0 
-8.76757 -39.8895 0 
-32.7053 -33.7215 0 
-16.9343 47.6495 0 
50.0245 -28.182 0 
11.4546 43.0083 0 
34.3982 -20.6973 0 
-11.636 55.0821 0 
-10.2634 32.0868 0 
-14.2684 22.04 0 
-8.30638 44.916 0 
-24.0938 33.6783 0 
-47.0577 5.90935 0 
40.5712 4.22162 0 
50.5278 33.5374 0 
20.9322 42.3919 0 
31.2029 -53.8719 0 
49.7839 41.1971 0 
48.6748 -32.925 0 
-54.2049 -17.2705 0 
-8.09792 39.6863 0 
-3.8796 35.1494 0 
28.4148 -3.98104 0 
-24.0246 6.40081 0 
-48.2941 31.9641 0 
-44.8401 -24.9919 0 
-32.6403 -48.836 0 
23.9643 41.8372 0 
-13.9429 11.9807 0 
-41.6383 20.2526 0 
-36.4514 -28.7881 0 
-21.1046 -29.4117 0 
-2.13308 36.658 0 
-33.0393 -11.999 0 
12.4533 -1.86641 0 
38.5664 -19.312 0 
-54.2057 26.0075 0 
3.26551 21.5884 0 
-9.5657 -37.0064 0 
-16.674 31.9912 0 
-38.9134 38.41 0 
-40.1933 42.8723 0 
30.7541 -35.2489 0 
12.9758 12.7673 0 
47.2987 -18.3205 0 
12.6306 -36.0525 0 
-15.5685 -40.3869 0 
-52.0704 -10.2317 0 
18.1228 -52.7578 0 
45.7245 -2.78876 0 
-25.2605 -24.7983 0 
-28.4654 -31.3935 0 
10.0829 -12.9011 0 
-45.387 28.8515 0 
38.0983 -2.03674 0 
6.39409 -28.2755 0 
27.2912 -17.793 0 
-14.6682 16.8676 0 
-23.4803 -36.2236 0 
-41.3716 44.0069 0 
46.9321 -25.0679 0 
-22.7797 46.5943 0 
-29.7607 -45.5967 0 
-25.258 -3.82701 0 
-39.1337 -35.5366 0 
25.7741 16.4015 0 
-0.0348694 -31.3287 0 
-27.6658 -38.4183 0 
-43.1294 35.7952 0 
-36.7798 48.2722 0 
-10.2984 -8.34606 0 
31.7447 -46.8579 0 
9.03156 29.8878 0 
-8.679 -29.044 0 
30.8785 -8.14524 0 
15.246 -10.5171 0 
-14.315 41.746 0 
42.0025 -2.71328 0 
14.3053 55.9969 0 
23.5396 -58.3246 0 
-24.4388 16.652 0 
-52.9189 -23.5264 0 
-7.43812 -42.7472 0 
-5.59491 29.4597 0 
-29.619 27.3762 0 
-47.7837 9.31742 0 
6.21431 5.84345 0 
-19.3081 -45.6627 0 
0.0521724 42.2677 0 
-18.2085 23.8633 0 
-8.90963 -48.1596 0 
-13.1743 12.4188 0 
11.6244 32.8912 0 
-11.9684 -48.7131 0 
36.3964 16.4024 0 
5.13324 57.8429 0 
32.0936 -27.0437 0 
11.8359 51.7183 0 
2.59964 22.1781 0 
15.072 39.6471 0 
36.0911 41.6559 0 
2.87484 60.1965 0 
-13.7539 57.0192 0 
-15.6723 -54.3408 0 
20.4446 -44.7736 0 
23.7988 -8.41571 0 
-39.5149 7.09441 0 
-26.3012 21.1628 0 
-9.66996 -21.5988 0 
47.7795 -15.7112 0 
-12.8989 -56.7995 0 
38.7763 -36.3172 0 
47.3744 -10.7258 0 
12.8028 -30.632 0 
37.1836 3.12147 0 
8.19786 -58.2907 0 
-0.926202 -4.7795 0 
-15.815 -13.3746 0 
11.1341 -35.5564 0 
28.8891 -47.902 0 
-40.4242 1.68506 0 
27.2182 -18.8444 0 
-31.8551 -2.9267 0 
2.97677 -14.3214 0 
-38.8942 -41.3773 0 
29.4647 42.2087 0 
29.1327 -30.0987 0 
-42.4977 12.3517 0 
-29.3579 44.305 0 
-0.0450106 51.3839 0 
-31.4174 25.7454 0 
-7.52169 45.556 0 
-0.624803 23.1074 0 
27.2849 -18.5236 0 
1.86678 30.665 0 
-10.8784 -48.7159 0 
25.8739 46.7758 0 
-3.16024 27.8789 0 
54.7273 -23.6531 0 
-13.3223 9.22403 0 
42.5512 13.3173 0 
40.3617 5.63034 0 
-21.2379 -55.622 0 
-23.0575 9.56635 0 
-4.28503 -9.00605 0 
12.1843 -17.4975 0 
-30.3355 52.4608 0 
47.9475 -18.2099 0 
-0.453345 43.1951 0 
-9.6714 -21.2546 0 
21.7299 -47.9033 0 
0.12078 -61.1611 0 
3.19205 21.6848 0 
-60.9348 -10.5092 0 
-29.7019 9.05744 0 
19.7295 -20.8913 0 
4.67278 26.3047 0 
-12.1137 55.2857 0 
-27.5938 -52.7138 0 
56.8295 -5.8359 0 
1.25419 -0.889348 0 
-3.51644 -29.2832 0 
28.1159 7.65489 0 
-22.1384 -45.5073 0 
19.849 47.1424 0 
5.77968 -29.5365 0 
-31.3247 -36.5134 0 
34.1684 -35.8199 0 
0.589361 -51.9205 0 
-16.0482 18.5634 0 
4.68543 -8.55769 0 
42.1176 42.5079 0 
-39.1638 38.439 0 
19.2447 13.2758 0 
17.5246 8.89661 0 
11.7177 -12.5475 0 
-42.1684 25.1686 0 
-15.6258 6.14555 0 
57.9326 -11.0103 0 
-14.0846 48.2753 0 
-11.3193 -14.4334 0 
-39.2765 18.1639 0 
-6.93807 5.56153 0 
12.9619 44.4449 0 
-26.2354 -9.94864 0 
25.6691 -12.945 0 
-55.9348 3.38224 0 
-9.37879 7.34685 0 
-46.8862 -29.8028 0 
-17.5093 47.0736 0 
-27.6949 -38.2226 0 
-9.32165 24.1685 0 
-25.7298 -35.2632 0 
14.7752 52.4246 0 
-17.1166 -47.4156 0 
3.70148 -44.4007 0 
-18.1134 -41.029 0 
37.8948 -46.606 0 
-35.1189 16.1222 0 
-7.97484 -57.7762 0 
17.1119 30.0058 0 
-54.9559 17.2755 0 
50.5835 36.2935 0 
42.878 27.9318 0 
-38.5086 29.3008 0 
-55.5339 22.4929 0 
-22.2173 28.4713 0 
-7.99676 0.195528 0 
0.309541 13.5866 0 
-9.52171 -37.6552 0 
-9.61117 -50.4015 0 
22.7043 -37.1527 0 
29.1552 50.9251 0 
10.6366 4.13825 0 
35.187 18.792 0 
-23.2269 52.5279 0 
-4.1168 33.7806 0 
6.85163 -30.4636 0 
-9.48828 -14.8185 0 
-37.1274 29.8537 0 
11.6552 20.5187 0 
25.3603 -40.9837 0 
-43.6634 26.8746 0 
-0.490137 14.2101 0 
-14.6099 12.5429 0 
-30.331 -1.65001 0 
22.4813 -28.4281 0 
-11.2715 -1.90442 0 
8.56467 -9.07045 0 
-30.4899 46.4342 0 
59.522 1.84291 0 
-15.5951 -26.3253 0 
7.34932 -43.3394 0 
10.7082 27.2132 0 
61.3775 12.0723 0 
29.2791 -29.8517 0 
-36.4243 -30.2149 0 
-16.2231 -10.6937 0 
-39.3058 -33.8031 0 
-16.5737 -25.9904 0 
53.7191 26.7345 0 
-54.2983 -22.4794 0 
38.6728 -17.7665 0 
47.1308 1.71103 0 
1.95692 54.1889 0 
36.3031 32.3982 0 
27.7393 -30.3811 0 
24.8085 -41.3152 0 
19.5765 -28.4589 0 
-7.42714 -57.0133 0 
25.2269 14.7077 0 
-52.7242 -16.0869 0 
-37.836 -27.425 0 
46.7381 25.8911 0 
-34.2024 44.5817 0 
28.4641 -41.8262 0 
18.0131 -33.2689 0 
21.1964 51.5819 0 
40.0118 19.5198 0 
39.2835 36.6893 0 
32.7622 -52.608 0 
-43.3051 -16.0103 0 
-15.369 57.0228 0 
22.4477 -36.217 0 
15.4622 19.2404 0 
15.3819 -4.40419 0 
-12.5631 -29.0745 0 
-1.89849 -30.6696 0 
-13.7763 22.8597 0 
21.3579 -23.7558 0 
4.31956 33.0949 0 
19.6284 51.3906 0 
-7.49655 6.10784 0 
18.9359 -27.7316 0 
-15.0615 -8.10968 0 
15.061 52.605 0 
-11.2125 -7.55666 0 
43.2031 -39.6574 0 
38.5693 -9.57318 0 
7.38032 -18.8203 0 
-11.6277 -35.1381 0 
30.3 3.71263 0 
-39.2054 -23.0272 0 
-4.2847 46.0578 0 
[...]
<CellData Scalars="wall variable 0">
<DataArray type="Float64" Name="wall length" format="ascii">
2.80723 6.81895 1.39289 0.776522 0.867229 2.1335 1.82062 1.45939 1.13346 8.36914 2.34236 1.43308 6.76139 3.18293 6.25838 0.714396 0.817596 4.5056 3.22137 2.50319 3.48854 3.32613 6.00578 1.87764 1.06198 2.44716 1.9953 0.57905 0.764751 2.93314 5.28288 5.07436 0.648099 11.3717 0.713208 2.56137 3.23234 5.54525 3.85393 0.842114 1.51804 4.4303 3.66764 5.79206 0.635487 3.01438 5.26446 1.58262 2.16283 0.648099 0.39524 3.79722 0.260044 6.62254 3.40145 3.11888 5.33263 4.54375 0.997648 3.83834 2.67394 0.414306 3.53588 4.71893 0.764402 6.77093 1.34474 1.00034 4.76675 1.01233 5.94785 4.17972 0.575634 5.08271 1.27454 6.85998 0.738775 9.18972 0.69596 1.78146 1.99575 1.07206 9.37199 1.79609 5.07898 4.13446 3.39376 1.60079 4.2402 6.78147 2.72743 3.95649 2.21062 0.789455 0.601187 8.0292 3.32095 0.326203 4.31807 3.63808 2.56787 7.18011 4.80695 3.85888 0.460643 1.82721 5.82279 1.88334 1.03277 3.39107 3.01198 3.95649 2.61036 1.73191 4.92067 5.08246 2.61036 2.72743 4.90631 1.40382 2.73509 0.888939 7.02358 2.42169 6.67573 2.84585 0.960018 2.80268 4.35759 1.27036 3.79515 1.72119 3.38146 2.53646 3.3991 5.16171 4.29517 6.38658 6.14808 1.43308 2.16505 1.02203 3.1561 2.19256 0.67314 4.25194 6.19206 0.747042 8.85799 0.728712 1.60659 3.44607 5.45076 1.07617 2.61559 4.67928 3.04362 2.50345 3.37837 5.58912 0.979242 8.85392 0.244354 3.68457 7.41187 1.31441 7.8444 0.96467 0.753357 1.58524 6.00676 1.17857 0.847759 3.04362 2.27882 3.32524 4.85865 5.12835 2.82778 2.14799 1.99045 2.33706 0.928625 0.783226 4.74365 4.82915 0.495929 4.62107 2.31488 6.70083 3.00333 4.20584 4.36864 3.74811 2.36773 2.05184 5.48818 0.487401 0.544703 2.42447 1.20784 2.61981 2.41367 0.342545 1.32163 0.994771 4.36864 7.26438 2.29839 0.233341 12.1781 3.28596 0.824044 6.12834 2.13946 6.01989 2.8644 4.85865 1.52397 3.25603 7.85656 0.148318 5.87589 3.00333 0.721575 3.27612 8.09441 4.00753 3.33087 1.1762 2.00104 4.88583 4.69642 0.937412 9.43688 1.02977 0.61305 1.72119 7.9935 0.0888159 0.798622 2.46542 6.52209 2.37385 2.05281 4.9015 3.24134 1.0258 6.16298 0.867229 8.78695 2.05818 3.74811 0.994771 2.13117 2.37385 0.267237 10.5202 5.63183 4.2007 5.33263 0.128306 7.0199 2.81877 3.09835 5.74644 1.64702 5.69297 8.9457 7.82179 1.67698 4.9015 1.83173 9.1468 3.54815 6.53079 0.788189 5.56279 3.51491 3.46034 1.13451 3.0039 1.15512 1.90187 2.58331 1.14227 0.81525 2.56666 0.842428 0.260044 4.2007 4.28131 0.934234 1.39289 6.12809 2.5133 4.35154 6.81285 2.39766 3.79722 0.744871 2.29067 3.26745 4.07293 5.31411 8.38148 7.40084 0.53152 2.43499 3.12842 2.56042 3.21211 1.09666 6.60099 7.28474 0.960252 1.11655 3.71028 5.78191 0.357679 1.45418 1.71226 4.16159 1.09409 2.1565 8.85392 1.70255 5.06394 1.42754 0.747042 1.84746 8.2971 2.97166 6.86915 0.494276 1.91725 6.74109 3.07178 1.37859 0.762305 6.86407 0.836117 5.10784 1.68946 1.15091 1.8252 10.7314 0.810865 7.04719 4.44028 1.45125 2.89475 6.50254 3.35158 0.599274 1.13451 8.17954 0.917447 8.27506 1.36123 6.53079 2.60671 7.02358 7.5567 0.170049 2.12369 1.73191 0.81536 4.51515 0.818273 4.08214 1.65962 8.61218 0.763414 9.5978 1.55122 7.90147 1.61479 3.34674 1.81416 2.903 5.10576 4.52194 0.80947 5.59207 3.40145 2.06653 7.04719 2.77607 1.41353 3.87508 1.62649 3.54374 3.89762 6.67573 0.156974 10.138 1.20786 4.39804 7.45154 1.85916 3.60551 5.8706 1.66258 0.586201 3.39045 0.377505 1.77976 0.276059 8.35019 1.14837 2.8092 9.5978 1.89805 7.0105 2.22681 0.633741 6.99725 0.841985 2.20363 5.07436 1.73944 2.33706 1.34234 3.36805 0.37422 2.66287 1.60659 3.18923 0.452792 2.27761 3.69163 5.8714 1.33976 4.27338 4.39086 6.73221 2.04624 5.60087 1.60079 0.979006 2.41703 6.5621 0.342545 7.72943 1.6345 3.31061 3.29831 2.20407 3.2728 1.61479 0.901291 2.89781 1.68622 5.07898 0.190051 8.64115 0.630275 1.34234 1.99045 0.990364 0.153953 7.64261 2.77607 0.810865 2.54987 1.54056 3.94996 1.66979 7.97467 0.164131 11.668 5.12086 6.28358 0.491331 10.6592 1.90187 1.36579 4.4016 2.71799 3.29292 1.64064 3.63889 9.1731 0.629916 1.42385 5.97626 1.74785 10.15 1.77682 10.1909 0.436091 7.85656 2.54502 7.05855 0.960018 1.42225 1.09666 0.789339 11.1432 0.143502 1.68946 6.19501 1.46722 2.35733 0.611057 0.326597 0.721575 2.36773 2.05818 1.43827 0.619266 1.44367 4.03307 4.28264 0.256675 3.19452 0.882297 2.86127 3.56068 1.20444 10.5353 2.20492 4.13446 1.68622 5.53969 0.931837 3.09922 1.87165 0.441598 4.02355 7.85672 0.471897 3.03695 5.83977 0.650731 5.8603 0.692464 7.00136 6.77093 0.781137 0.190051 4.85355 3.95366 1.04856 8.0292 1.26973 8.2971 0.205039 3.28608 2.74023 4.01348 3.88883 8.61218 0.771617 10.15 0.481577 3.23029 3.27612 4.28264 5.0543 1.01893 1.20361 1.6345 2.44478 1.99575 2.92167 2.17482 5.5597 0.590672 8.67357 1.48154 2.05184 2.01108 4.77604 3.75588 1.48154 5.21078 1.01233 0.733487 4.32731 5.48818 4.46884 0.499542 1.86672 4.95623 0.611023 0.0386309 0.233341 6.95989 2.6223 2.65866 2.53937 0.593328 9.23922 4.08004 1.11421 5.78191 1.5576 3.69163 4.41599 0.618852 0.96467 3.06683 2.15925 6.50254 0.47486 6.34987 4.45529 7.28474 1.11421 7.8444 0.901291 7.90147 0.775557 4.17972 1.65567 5.28196 0.621407 5.79884 2.29706 4.25041 6.27796 2.29091 5.45011 0.517012 4.66696 2.27077 0.773456 0.715921 3.18986 1.0939 1.49619 6.17236 0.212 9.09261 4.46102 0.785886 5.79884 2.04351 6.69054 3.25366 6.4461 2.31578 1.59983 3.57246 1.94281 0.96203 8.67508 2.70805 7.17615 0.888939 0.198105 1.20444 1.50958 2.42664 2.56787 1.35009 7.5567 2.94914 6.61721 0.141582 3.53739 0.491331 3.76171 1.43983 7.17615 4.54331 6.16765 6.19501 5.10784 9.27084 5.32525 0.26417 2.28913 1.01464 8.23029 1.94329 4.06876 0.715921 10.2 0.143187 3.38146 0.61305 3.76342 5.38473 1.38701 1.90029 6.90417 0.495072 1.93655 6.4461 1.42754 2.12099 0.937412 6.55634 8.85799 1.94281 1.43983 4.11554 4.35759 7.44166 3.72946 6.03696 2.04767 5.09963 0.882297 0.25719 0.156974 3.73209 6.67235 1.36596 0.141226 10.0441 1.26929 10.1836 0.777097 2.21494 2.14069 4.53737 0.244354 2.1565 0.440471 4.01483 4.10039 0.177442 1.58623 1.11648 0.817596 6.96883 2.70644 7.93614 0.747008 2.54676 3.93831 2.97166 2.34742 4.70875 1.80183 0.841985 0.102435 6.01108 3.8283 2.16283 4.2441 3.97332 1.08179 0.408071 11.3717 4.14051 6.01989 0.280226 1.60714 3.12295 1.40783 0.853983 5.15173 3.76342 1.02977 3.99133 1.70255 1.26973 2.29777 6.07828 1.0258 1.07929 2.19734 0.627912 3.64741 2.09947 8.345 0.177442 3.67474 2.28644 3.48709 0.974477 0.386608 5.15222 7.25634 1.78977 2.64327 8.03696 1.46722 9.27084 0.836117 0.740117 0.586201 0.871578 0.945639 2.66339 6.8344 0.37422 9.05186 2.19734 6.04125 2.83557 3.60196 5.07588 5.46108 4.41599 2.27761 0.435253 7.41187 3.22583 4.56835 6.81285 0.83521 7.34899 2.99999 3.89469 3.28596 4.14051 3.63808 5.94157 1.82062 3.17813 2.29777 1.12081 0.544703 8.33356 3.42964 0.860196 5.80623 6.2689 1.41353 7.97467 2.77954 2.35228 1.21264 5.57244 0.395443 2.45731 3.22583 3.68457 4.53737 7.33643 5.07375 5.53969 2.89781 0.621407 7.92974 0.875903 6.70083 0.981877 4.16159 4.65563 0.629916 0.564906 4.33859 9.94576 0.548826 9.37199 2.60853 5.36367 0.695722 4.15854 4.01178 2.53937 3.34561 6.77388 3.53564 3.1561 2.15986 0.633741 2.02129 0.386608 0.291015 3.25565 0.755809 3.66216 1.10678 0.499542 6.40281 4.4303 1.28046 1.1762 6.75764 5.7468 2.77074 4.70708 3.74646 1.04791 4.95623 0.96839 8.78695 0.776522 0.934234 4.56835 2.45731 0.736676 4.57068 4.43814 7.25634 0.785566 2.28913 0.092624 5.94785 5.21078 8.67357 2.55181 7.7506 1.77976 3.17701 0.860196 1.40507 3.83876 0.517012 3.50588 2.99999 0.548608 5.58912 3.78205 0.230777 5.56611 2.01108 1.32163 2.20407 0.810961 3.84866 0.69596 4.60569 3.79483 2.65302 5.2701 2.43611 5.69297 3.09169 2.93314 4.49287 3.01077 7.12628 1.00345 4.25194 3.42972 1.81416 4.79914 6.72777 0.907052 3.84846 0.989498 0.774619 4.00464 4.07224 4.38159 0.81525 7.4332 0.917447 2.16505 2.34236 2.37473 3.30027 7.65209 3.66764 5.7468 0.781042 1.95651 3.87508 2.42169 1.4505 3.39045 0.740117 6.86407 7.52057 5.8603 0.764402 0.092624 0.590672 1.82342 1.87764 6.2944 0.680444 4.03431 0.512968 5.54525 5.12396 0.818273 0.510815 3.60983 0.744871 0.39524 0.537371 10.8877 0.727745 2.54676 6.84971 0.945639 1.58682 5.81268 1.09574 2.77698 0.733487 4.76675 0.617354 0.611057 0.595299 6.39297 2.70644 1.2801 3.02115 0.493753 10.1891 8.23029 7.27903 1.46169 4.21979 1.50357 2.51168 2.86127 5.09963 1.38245 3.18293 4.73895 0.542807 6.48949 3.09657 4.43418 3.41907 4.57992 8.17954 3.46034 6.25872 6.00182 3.03695 1.7059 0.575483 9.1468 2.21062 5.08246 4.16773 2.33013 2.04624 1.09092 0.450982 3.77302 0.4821 4.25041 0.970641 3.09835 4.549 1.47654 4.16773 4.92067 2.12369 0.568772 11.668 5.87589 1.52286 7.26438 4.20584 7.98834 2.10474 2.58331 3.85823 3.60551 2.12099 5.06394 3.99133 9.43688 3.26905 2.60853 2.65866 2.00896 7.0105 4.4837 0.498152 3.8283 2.82858 1.49304 2.53646 0.143187 0.766168 3.91424 4.53138 2.00017 2.85275 2.36813 0.964164 0.280226 2.13946 0.664152 3.28608 3.9408 1.53057 6.95594 2.6223 6.22738 3.13487 3.34561 2.22681 2.00896 3.26905 1.89805 1.80183 3.21539 4.12549 5.36367 2.15986 6.19206 1.00345 2.25347 0.102435 6.99725 0.510815 4.51515 6.00572 0.293135 8.79812 3.10325 4.69426 1.45418 5.35225 6.45626 2.08167 0.542028 3.97591 4.77604 5.56611 3.66277 3.49387 0.907875 4.01483 5.34191 4.88215 1.2376 3.06683 1.13838 6.48949 1.69554 7.36129 0.658637 6.28358 4.60335 2.28054 0.961009 0.128306 3.11888 5.59207 0.395443 3.12674 1.17072 8.38148 0.96203 7.44166 2.80268 7.05855 2.48849 0.614596 7.26133 2.4972 3.57778 4.07224 3.02287 0.512968 10.5366 0.602331 1.20786 1.63289 0.719423 6.00733 0.692464 1.53894 2.07356 2.49648 3.66277 2.16355 8.78223 1.10678 6.36614 0.616358 2.08167 0.230777 3.7703 2.77074 1.86672 1.08504 7.7537 0.713208 0.408071 0.886726 1.61407 7.66839 0.293744 7.64866 4.2441 1.58262 4.8578 1.36579 1.15512 1.01464 0.785566 5.15222 2.02129 5.33296 7.27903 4.15854 3.97365 5.61485 3.82432 1.40591 4.06468 0.452963 4.00753 3.07422 0.204653 8.40008 2.20981 2.61981 8.52024 1.15091 0.143502 0.906702 9.94576 4.47837 8.35019 1.79552 6.03337 8.04028 2.27635 2.54987 10.7314 2.61323 6.96883 0.714396 6.42391 3.0733 7.948 7.26998 3.80927 1.26771 0.0305834 3.60722 6.71896 2.4972 0.885478 2.59434 1.45125 3.13555 9.76533 0.985442 0.789455 1.09092 6.73221 0.768407 0.683388 6.79793 4.82915 0.875903 1.36087 8.44767 5.33296 6.40281 4.46884 0.560348 1.46169 5.97626 4.96178 3.10325 1.45526 2.00743 4.03431 5.83947 1.34168 10.5366 2.14066 6.96802 2.74023 0.664152 6.12834 3.07422 4.69642 3.91263 1.49619 0.744927 5.16734 0.843759 0.256737 1.85504 2.14066 0.824044 3.89469 3.50588 5.45011 2.16355 5.34191 0.440471 2.61323 5.41508 1.04014 0.200196 0.879497 5.0543 4.03307 2.80108 4.36823 4.59263 3.7703 3.84866 4.96198 4.70708 0.773456 2.60572 3.82995 1.2352 3.97605 0.766168 10.2 0.433271 0.0488725 0.885478 7.26133 1.6276 0.646876 4.90631 6.78147 3.4333 4.22502 2.50319 2.18941 2.31939 0.755809 1.61407 6.5114 0.575634 0.775557 1.55122 2.8092 0.537988 0.744531 0.777097 2.23354 0.907875 4.41852 1.47316 5.97346 3.67474 4.10039 0.252643 9.2933 6.71355 5.2687 0.934591 4.69916 5.38986 2.68689 3.83876 3.56068 4.73895 3.22137 2.83419 1.50958 4.6694 6.60099 1.42225 2.84585 3.89762 1.85504 3.84907 0.853983 4.01348 6.96802 2.54502 3.25603 3.92473 0.823922 7.43849 0.9234 2.48849 7.4332 1.14227 2.10474 0.378798 8.27506 0.560348 6.95989 2.29839 1.52286 0.148318 1.33476 0.991634 0.734354 4.21979 5.97075 4.52194 1.57809 3.4333 3.25565 5.11819 0.537988 1.14837 4.47837 1.04894 5.65852 2.35331 0.68997 0.788189 1.36123 0.378798 7.98834 1.85916 7.7506 1.94463 2.26272 7.32103 2.51282 0.792894 9.45785 0.886726 1.08179 4.85631 5.08271 6.5114 0.773374 9.23922 3.27246 7.90741 1.87165 1.62084 9.45785 1.99779 4.11159 4.02355 2.13164 1.04014 0.520477 0.949184 0.481577 1.74785 2.03123 2.72079 1.26716 7.70941 2.69435 1.54056 2.27635 2.86431 5.47014 9.76533 7.91892 0.928625 1.73944 5.28288 3.09169 1.64702 0.885689 0.204653 0.843759 3.22371 5.16171 3.75118 4.57068 0.26417 3.39415 2.75345 4.4016 4.8578 5.26446 0.405772 3.83834 5.4366 1.36087 0.564906 9.1731 5.26228 0.141582 1.26957 1.7059 0.471897 0.669269 6.25872 3.51491 0.896917 6.69054 0.229621 3.82432 1.87575 1.62649 1.95651 1.24605 0.505353 4.7239 4.4837 3.97605 2.50147 1.18054 6.5621 0.436448 4.49287 0.764751 3.63076 0.842428 0.405134 3.60722 4.44028 2.06653 6.62254 0.734354 9.30403 0.42273 6.00676 4.13079 1.50357 6.2944 6.00578 6.31444 7.50852 2.55181 2.68689 4.42148 2.13164 0.650731 7.46756 2.35331 3.79286 4.80695 1.99319 1.58623 8.345 4.96198 0.810961 3.29831 0.640446 9.15138 3.74646 3.65157 7.08085 1.86602 7.22988 3.13943 7.56896 2.66339 6.84971 0.747008 2.23859 3.5526 3.39415 5.32525 0.563299 5.07588 0.68997 7.46756 5.83977 6.00182 1.83173 2.64327 1.13011 2.0251 3.01077 3.34674 4.2551 2.98831 5.34557 2.65302 0.459719 9.84935 3.84846 5.18685 1.88259 0.62413 3.95366 2.4463 1.2593 0.141226 5.12947 2.41909 0.293744 3.0039 0.599274 6.56765 4.35154 6.58185 2.78692 5.35225 0.357679 0.979242 0.435253 0.896087 2.26272 2.8892 5.29372 5.81268 1.33476 8.09441 3.23029 6.53572 0.991634 6.53572 1.20361 3.75245 9.30403 4.24485 4.74365 6.95031 0.744927 1.0939 1.34474 7.00136 6.00733 4.91953 8.17414 2.91293 4.07055 1.6276 3.02287 4.00464 2.23011 2.94914 0.763327 2.0345 6.18099 2.0768 2.18236 6.72777 4.74083 4.549 2.81877 2.43611 0.436448 2.41703 3.09657 1.13838 6.34987 0.58462 1.99779 0.792894 2.44792 0.55526 0.981877 2.31488 7.48349 4.20437 1.08504 2.55423 1.26929 1.09409 0.893343 2.82778 4.24485 3.18986 0.602831 1.38737 7.26998 1.32653 6.11278 3.43172 0.842114 4.03176 1.69347 2.43289 5.8714 1.5576 3.71028 5.27691 2.00977 0.602831 9.09261 1.95573 2.31578 1.93655 6.53851 0.944714 3.23234 2.96599 1.21672 4.08214 5.12396 5.16734 6.95031 0.783226 7.91892 2.41909 1.89851 1.27454 4.85631 3.97332 7.64866 3.9408 0.205039 1.84746 5.45076 2.56719 4.80503 0.0488725 9.31575 2.86431 8.04028 1.8252 2.59434 0.433271 4.2402 0.985442 5.47014 9.31575 6.04023 2.50147 1.2352 6.07585 2.43499 3.41177 0.578 10.5353 0.198105 2.73509 8.6348 1.25804 4.62107 1.23251 1.77682 0.771617 1.65962 1.21672 0.603597 7.48349 2.0345 8.92186 0.990364 2.14799 0.893343 7.948 0.252975 5.14067 8.03819 3.85888 3.79286 2.09947 2.13117 12.1781 0.0386309 2.12348 8.9457 2.05281 5.57244 6.74219 0.494276 1.3074 2.72055 3.12674 2.0251 2.74339 2.82858 6.01108 2.25347 7.12628 8.6348 1.40382 0.646876 4.07055 6.60361 1.91196 0.793243 1.86602 4.58808 2.44792 2.51282 6.15439 0.728709 5.32341 2.71799 2.75345 3.01438 2.39766 1.63984 2.56719 3.44607 2.66287 2.43289 2.46079 5.27591 1.42385 4.65563 1.71226 4.69426 4.96178 2.60572 2.27077 2.21945 3.11989 2.56042 6.15356 3.36805 0.630275 5.5268 0.627912 9.05186 4.08004 0.773374 3.09922 4.39641 0.359572 6.22738 5.45903 0.989498 2.4463 4.85355 7.64261 0.452792 9.36088 0.0888159 4.02849 2.23859 3.60196 0.405134 2.56666 4.38159 3.57778 6.71896 2.56204 2.09506 3.30027 0.927595 4.60569 9.18972 0.25719 0.0285627 3.41907 1.83445 3.65157 2.08842 1.63289 10.138 1.20784 8.41005 3.07178 8.52024 2.23011 0.774619 2.60671 3.54815 0.575483 1.26957 6.61721 0.411817 7.40084 1.17072 2.72055 3.53839 8.29744 3.17169 8.29744 0.562105 10.8877 4.31807 0.845462 4.83878 0.54036 1.45939 5.94157 3.173 0.256675 0.578 2.81025 3.29292 5.32341 0.933389 10.4176 1.9953 2.20363 2.83557 5.7133 1.95573 0.212 6.15036 2.00104 1.28046 1.51804 3.43172 2.39346 1.59983 1.94329 2.51168 4.13079 1.58524 6.22524 1.8197 8.27572 0.222905 3.73209 7.45154 0.680444 7.50852 0.725113 2.19256 3.53564 0.51043 5.83947 1.25804 6.60361 2.91293 3.76171 1.64064 2.81025 0.200196 7.70941 5.1032 1.03277 4.13145 4.11159 0.58462 0.47486 2.89475 4.57992 0.669269 7.85672 5.17363 6.56765 3.35158 2.15925 1.2376 3.66216 2.31939 4.81795 6.36614 3.82995 6.15356 3.12842 6.07585 6.17236 3.91263 4.88583 6.15036 4.20437 0.603597 2.96599 2.56137 7.7537 0.274125 2.43849 0.459719 3.79483 0.927595 2.37473 8.36914 3.39107 5.1032 1.26716 4.12356 4.54375 3.80883 5.19697 1.68471 3.92978 8.09771 2.49648 6.20985 4.41852 3.49387 2.14069 9.04251 1.20433 0.736676 7.33643 8.17414 4.88365 1.91196 3.80403 0.617354 1.00034 2.42664 2.83419 4.5056 1.11648 1.99319 7.18011 3.18923 0.728712 6.55634 0.798622 9.36088 0.363954 7.92974 5.28196 1.12575 6.67235 0.222905 3.17813 2.1335 6.16298 6.07828 0.846505 8.44767 5.4366 0.997648 4.12356 2.72079 2.03123 10.1909 1.23251 0.495929 6.79793 0.846505 2.17482 1.12556 2.98831 0.332706 0.691383 2.36813 0.729063 0.267237 6.52209 0.719591 1.06198 1.82342 3.75588 3.97591 7.688 1.04894 6.03337 4.89336 3.38072 2.35816 2.50345 5.12835 2.8644 0.436091 3.21211 3.11989 2.25283 1.01893 4.59263 2.8382 4.51612 1.17857 0.42273 3.75245 2.07492 3.26745 4.6703 1.08839 0.227538 6.03696 4.40107 6.29949 0.635487 1.11439 4.54331 2.70805 0.980612 0.763327 4.79914 5.45903 0.153953 8.92186 3.74103 3.21539 4.70875 0.498152 4.7239 1.02203 7.65209 2.09506 7.01782 0.789339 1.3071 8.03696 4.2551 0.80947 5.97075 0.291015 3.42964 6.01519 1.09574 5.29372 0.525526 4.69916 1.40507 0.695722 4.12549 3.74103 0.505353 6.04023 1.60583 3.97365 2.27359 7.0199 0.961009 5.31411 0.411817 3.17169 0.537371 0.871578 1.66258 3.75118 3.3991 1.49304 2.74339 1.13011 1.78977 4.43814 0.332706 9.84935 2.43849 1.30569 6.71355 1.27287 0.609267 0.293135 8.8982 0.520477 5.41508 3.0733 1.64002 1.08839 1.8315 4.60335 5.12086 0.568772 0.170049 1.35009 0.460643 8.03819 1.44688 8.40008 0.885689 5.74644 0.970641 2.29706 0.785886 3.60983 8.79812 0.609267 4.6703 2.29067 2.60484 4.07152 5.04462 5.82279 2.55423 7.66839 2.23354 10.1836 2.07356 0.928309 3.1453 1.47354 1.48656 1.47316 6.20985 5.61485 1.60583 3.41177 0.53152 4.6694 3.54374 1.87575 4.66696 3.78205 3.37837 2.25283 2.21945 1.83445 4.43418 0.55526 4.58808 7.08085 3.13487 0.359572 1.27734 1.8197 4.39804 0.602331 1.34168 0.51043 6.77388 1.43827 10.5202 0.729063 2.85275 8.63006 6.00572 0.81536 3.88883 0.949184 8.8982 0.896917 7.98335 4.06468 1.44688 4.46102 2.20492 6.26197 0.450982 4.74083 0.979006 3.39376 4.06876 6.22524 0.753357 0.618852 5.46108 0.563299 3.85823 4.28131 5.63183 2.27359 5.8706 0.377505 7.52057 0.762305 1.15463 5.80623 3.17701 2.21494 0.744531 5.11819 3.14039 0.500521 9.04251 3.53739 5.26228 5.56279 10.6592 2.44716 7.688 0.542028 0.616358 4.81795 2.18941 3.96755 1.68876 3.80927 1.38737 0.944714 5.63119 1.78146 5.2701 5.34557 1.12556 2.92167 0.525526 2.8892 1.94463 1.62084 4.42148 5.38986 4.49443 3.38072 0.828714 3.63076 0.57905 10.4176 3.03162 0.595299 2.35733 6.8344 7.56896 1.27734 4.39641 0.931837 5.07375 0.363954 8.27572 4.61003 4.03176 3.85393 6.29949 4.02849 7.9935 3.79515 3.22371 3.5526 2.41367 2.20981 4.33859 1.07206 2.44478 7.72943 5.7133 6.04125 1.07929 3.24134 0.96839 1.20433 0.500521 2.22439 3.93831 0.727745 0.562105 3.53839 1.3074 6.86915 2.42447 6.2689 1.15463 1.37859 8.41005 1.09013 3.52796 0.796885 6.12809 6.81895 1.11439 5.79206 1.4505 1.27036 4.11554 6.16765 0.441598 7.90741 1.64021 3.77302 6.26197 1.04791 9.15138 2.9563 7.82179 2.12348 0.611023 0.828714 4.89336 1.79552 0.276059 0.763414 3.2728 1.79609 5.60087 1.18054 3.80403 6.15439 7.32103 0.896087 1.58682 1.17144 5.63119 6.53851 0.495072 0.456041 3.92978 3.31061 5.5597 0.719591 2.46542 1.67698 2.9563 0.640446 1.65567 6.85998 1.89851 5.12947 1.36596 1.12575 3.14039 5.65852 2.35816 4.49443 0.933389 2.22439 0.728709 4.07293 2.07492 3.72946 3.19452 3.173 1.38245 2.04767 0.227538 1.64002 6.42391 6.25838 0.229621 2.04351 6.27796 0.4821 1.64021 3.27246 0.593328 4.01178 1.40591 0.601187 1.12081 3.64741 5.5268 8.64115 0.781137 6.39297 3.03162 3.13943 7.93614 4.32731 2.77698 6.01519 8.33356 0.487401 0.363285 8.78223 0.879497 4.13145 1.88334 5.04462 3.81593 2.903 3.42972 0.67314 0.725113 6.31444 3.32613 0.0285627 10.0441 1.2593 5.17363 4.88215 0.542807 3.84907 0.256737 2.29091 5.38473 5.15173 7.01782 2.56204 0.738775 0.548826 0.906702 11.1432 3.33833 1.48971 3.57246 2.39346 6.11278 4.91953 0.719423 2.08842 7.22988 0.793243 4.88365 1.24605 0.781042 6.75764 3.33087 0.452963 7.98335 1.57809 5.10576 3.81593 3.48854 4.22502 
</DataArray>
<DataArray type="Float64" Name="wall variable 0" format="ascii">