<VTKFile type="UnstructuredGrid" version="0.1">
<UnstructuredGrid>
<Piece  NumberOfPoints="    3322" NumberOfCells="    2446">
<Points>
<DataArray type="Float64" NumberOfComponents="3" format="ascii">
-43.2243 -33.4885 0 
6.4366 6.99867 0 
35.5557 -4.1899 0 
0.941781 -44.4292 0 
-19.0214 34.2682 0 
-47.9321 18.3355 0 
5.31316 -31.0608 0 
15.2897 -57.863 0 
-37.3997 46.6005 0 
54.2863 -19.4656 0 
-45.041 10.4483 0 
33.1581 -16.0397 0 
-9.82177 28.955 0 
4.75577 -45.9233 0 
49.0322 18.0604 0 
-7.55678 -29.5655 0 
-1.69888 -61.1615 0 
58.707 5.65112 0 
-20.4762 -27.6998 0 
21.9717 -14.115 0 
17.1025 42.6087 0 
31.1141 36.9237 0 
-36.0645 -29.9744 0 
3.86746 0.877401 0 
-26.5314 52.0501 0 
39.2096 -7.06319 0 
-23.4052 -42.7829 0 
-19.5729 -39.2826 0 
-40.3591 10.8008 0 
-45.5842 -9.60888 0 
18.8096 34.8641 0 
31.9337 16.3071 0 
-28.7196 -46.2423 0 
-23.7487 45.2932 0 
-20.5456 -9.68564 0 
-40.4339 -30.3422 0 
-10.3149 25.4594 0 
-6.41562 36.225 0 
25.089 40.5173 0 
-6.55385 -47.6695 0 
28.2749 24.8225 0 
-16.2231 -57.6013 0 
27.5517 -45.5052 0 
-31.023 48.1946 0 
12.4788 34.7081 0 
47.7554 -14.6666 0 
-9.15211 -1.07573 0 
-19.605 24.221 0 
4.59164 15.8307 0 
-3.80135 -30.6795 0 
30.129 -25.399 0 
17.9113 53.388 0 
-17.7068 -6.7976 0 
33.043 -30.0645 0 
-18.1695 -17.2757 0 
-31.6039 4.71414 0 
-6.86904 -37.5287 0 
53.0963 29.3596 0 
-5.42269 58.523 0 
12.3633 38.853 0 
-19.1267 24.2368 0 
39.822 -27.7423 0 
35.4897 -35.4948 0 
28.8982 -18.7865 0 
-43.7627 23.5433 0 
6.31716 41.4583 0 
18.1546 22.5414 0 
-47.6761 -20.2322 0 
-53.7768 -32.6673 0 
9.04678 60.9627 0 
10.7098 -2.97068 0 
-39.2773 -28.9016 0 
31.251 43.9265 0 
-22.7862 52.3349 0 
-13.0569 61.2498 0 
-34.2298 -14.2753 0 
17.222 -19.3305 0 
-32.3895 33.4101 0 
18.6133 -33.6321 0 
0.654615 55.9687 0 
-52.364 -5.027 0 
23.0432 -27.9095 0 
-7.65794 -8.1798 0 
35.026 49.5318 0 
39.6513 20.0632 0 
43.4537 31.5376 0 
-50.4514 -11.4106 0 
-0.825806 42.2197 0 
52.7713 21.6624 0 
-29.3973 43.6152 0 
1.58432 -35.7133 0 
-21.0345 -20.9268 0 
18.1057 23.5765 0 
-50.3175 -26.0214 0 
22.5057 -28.4373 0 
28.1196 -51.0926 0 
21.9046 -1.71602 0 
-15.319 29.5671 0 
-12.7612 54.7594 0 
8.87469 -26.3322 0 
-18.977 -57.8474 0 
-37.6705 16.2244 0 
36.7737 9.81962 0 
-47.7763 5.39007 0 
46.6315 -13.6387 0 
-10.3379 -1.16888 0 
-46.5461 -3.58627 0 
22.5665 -2.02207 0 
-56.3336 23.5584 0 
-39.2211 6.42884 0 
57.553 15.4483 0 
-12.9643 9.47953 0 
-21.515 -38.6831 0 
19.0086 29.4294 0 
35.0221 -14.2034 0 
56.4135 3.09597 0 
-23.6871 -21.2201 0 
31.7709 51.9903 0 
36.9573 -39.4426 0 
28.8795 -3.63497 0 
23.4998 6.26687 0 
-19.6754 59.6512 0 
-3.74706 61.7827 0 
30.7386 52.4657 0 
10.1981 -44.3061 0 
-31.1664 35.563 0 
-11.0364 -16.0683 0 
33.3541 -29.7974 0 
23.1865 42.6522 0 
6.90582 -39.1303 0 
6.31136 53.6967 0 
-16.4282 -1.89299 0 
-33.2476 -24.7757 0 
-9.73236 -13.1518 0 
50.3776 29.3642 0 
-32.6309 37.6146 0 
24.97 -4.22545 0 
9.81937 60.3024 0 
-36.1475 -5.65303 0 
-19.406 33.8285 0 
-14.0985 -58.4517 0 
16.0843 54.8315 0 
-17.4323 -51.7254 0 
-4.13802 11.6773 0 
37.8974 35.1286 0 
2.87408 24.1974 0 
14.4435 29.9685 0 
17.2338 58.2524 0 
31.9121 16.8654 0 
9.9914 31.494 0 
-50.563 17.832 0 
0.808374 62.7532 0 
46.8439 25.0843 0 
35.6078 -48.5978 0 
1.41908 55.1785 0 
12.4732 -47.6147 0 
6.84401 15.1826 0 
14.7312 9.42093 0 
-43.1278 -8.23255 0 
-2.55487 -54.3768 0 
-61.419 4.5558 0 
-10.5134 -11.0664 0 
36.6362 45.7115 0 
-34.6097 28.1565 0 
-41.8781 -24.0021 0 
45.8414 -31.4391 0 
19.6189 24.6611 0 
-54.7499 -29.3015 0 
-32.2635 -36.808 0 
-13.0365 -19.1642 0 
41.4039 15.9656 0 
-12.0764 41.0869 0 
-26.7011 11.2824 0 
39.2548 10.5101 0 
11.4556 56.1906 0 
-22.057 30.0744 0 
-10.3086 19.3721 0 
-53.6151 -33.0243 0 
18.2851 22.2268 0 
10.5691 -5.95284 0 
42.0048 30.6828 0 
-30.8276 -15.4256 0 
-34.6848 16.6958 0 
-2.63001 -38.0344 0 
-32.7871 37.8474 0 
34.9668 -20.5995 0 
36.8861 -30.4665 0 
8.09557 22.0864 0 
-26.453 36.616 0 
-20.6991 -9.0685 0 
36.3929 0.5147 0 
52.642 3.15123 0 
-15.4376 -46.5806 0 
-16.5761 -52.4779 0 
42.2944 29.2803 0 
-61.4377 -0.630751 0 
31.3527 27.1918 0 
-14.2921 8.50233 0 
40.976 -14.6453 0 
-40.2918 33.2446 0 
34.1744 -18.9649 0 
-51.2326 30.8698 0 
-11.71 8.55169 0 
-16.4269 34.4824 0 
-9.46739 -23.0433 0 
-18.9496 60.1292 0 
18.7881 47.684 0 
-10.1842 26.861 0 
-1.58714 -3.97833 0 
-27.5549 14.268 0 
16.4993 -42.4883 0 
39.013 10.424 0 
34.9264 26.8441 0 
0.535206 35.9839 0 
-22.3379 52.4117 0 
-16.6578 -34.7454 0 
44.1274 -26.0123 0 
53.0439 28.0628 0 
12.8943 47.1706 0 
56.4718 -11.1659 0 
-10.7407 14.3655 0 
-19.5712 2.70445 0 
27.9742 -35.7507 0 
-54.6041 -21.2825 0 
9.40563 19.2784 0 
-60.3909 -10.6323 0 
34.0991 41.8982 0 
-2.80127 38.488 0 
32.1294 -24.2647 0 
29.8386 -31.7542 0 
-39.5962 -18.202 0 
11.975 -1.84722 0 
-48.7251 2.4638 0 
-26.741 55.6515 0 
2.25909 62.6348 0 
14.9883 -28.9266 0 
-35.953 -8.44459 0 
-7.12659 4.54968 0 
-18.1446 8.34654 0 
-15.3345 -12.8213 0 
22.2365 -41.146 0 
-6.42409 -47.2333 0 
-21.7817 38.137 0 
-28.8037 -1.36898 0 
16.3548 -8.52391 0 
3.71037 61.8843 0 
1.75479 10.0606 0 
-3.41078 -15.9828 0 
-7.03371 13.7081 0 
53.0862 4.28769 0 
51.4893 -4.62617 0 
35.3821 29.3419 0 
-41.3117 -44.8113 0 
58.8875 12.2909 0 
5.16972 -14.8016 0 
27.9289 -28.1562 0 
-21.1613 -4.84762 0 
7.56179 -23.4101 0 
19.9148 -2.22273 0 
11.1745 -37.072 0 
-15.3686 -24.7373 0 
25.6017 -53.9541 0 
-19.6508 11.8316 0 
30.7708 -24.6113 0 
9.79457 -51.8499 0 
34.3302 23.7838 0 
-54.8224 6.32327 0 
0.6235 31.8296 0 
37.9734 -37.4479 0 
38.2551 24.4976 0 
-50.9483 -18.9057 0 
24.8684 34.454 0 
-17.4453 -28.3374 0 
-46.3101 -32.175 0 
8.3058 48.5261 0 
15.2975 -50.2817 0 
-13.0945 54.3303 0 
-18.508 14.8772 0 
-14.1856 -29.9566 0 
-50.0822 -25.4668 0 
59.2903 -7.44828 0 
-26.028 -0.136139 0 
-52.2393 -25.6007 0 
27.2875 24.1178 0 
19.6292 -55.2213 0 
-41.5581 21.9007 0 
-40.7411 10.9116 0 
18.683 -46.1902 0 
54.2499 -20.2972 0 
29.2885 4.37304 0 
-22.232 -8.82276 0 
-55.6333 -2.64536 0 
-2.56976 12.3636 0 
-38.4316 -18.1834 0 
47.7923 15.1232 0 
30.6085 -6.25471 0 
24.145 52.0035 0 
-1.68159 18.8927 0 
-42.3688 -13.6558 0 
-3.73713 -20.7447 0 
47.18 -1.99573 0 
-46.8791 31.3228 0 
38.9611 -9.40859 0 
-4.78309 32.2974 0 
2.93288 30.3816 0 
49.2452 27.4904 0 
-29.4909 44.1238 0 
-43.7836 33.8695 0 
24.4681 15.9706 0 
15.3449 17.9517 0 
-58.904 13.321 0 
57.4043 21.6998 0 
-2.84672 48.0756 0 
-29.8562 -25.5421 0 
-52.3311 9.26691 0 
52.5214 -8.63455 0 
6.85861 -55.0547 0 
-14.8176 44.9261 0 
-56.2897 -13.5342 0 
42.3268 -38.5649 0 
-41.5151 -44.4519 0 
-11.0419 55.886 0 
-48.5733 29.3111 0 
-59.5761 17.8355 0 
33.3077 22.2158 0 
-48.4118 -29.6372 0 
39.2104 -7.39713 0 
-40.0455 -40.6821 0 
52.4095 -26.9322 0 
-17.1603 -0.557414 0 
11.5613 -7.34584 0 
-50.2528 -36.5044 0 
-26.4846 -21.0652 0 
42.6022 5.8873 0 
52.2787 19.7961 0 
-52.3486 12.7309 0 
-32.8843 -21.9013 0 
-31.3119 19.4305 0 
-28.2992 -3.856 0 
24.1366 -37.6771 0 
-29.3737 17.8411 0 
-41.4987 40.6208 0 
14.6676 -26.5661 0 
48.8534 17.7941 0 
-33.6013 -32.9539 0 
-12.1787 37.3744 0 
-1.57338 12.0719 0 
-36.6646 -4.51973 0 
-7.01509 3.7457 0 
-13.0141 -33.0724 0 
-20.0137 23.7326 0 
-9.03876 -23.1943 0 
-44.4597 24.6233 0 
-34.0976 -42.0001 0 
-40.8999 32.685 0 
-13.6241 23.0301 0 
-27.7135 15.2908 0 
47.6582 33.5564 0 
-54.9947 23.9375 0 
-24.9735 29.5676 0 
16.6781 -57.5069 0 
-39.6067 43.9076 0 
-29.1341 25.421 0 
-37.5264 36.6197 0 
-24.8948 -29.2097 0 
-31.6065 -31.7925 0 
-6.93456 24.0612 0 
29.6308 18.5225 0 
33.4302 11.9053 0 
-0.184078 -0.441891 0 
-0.180494 -13.1073 0 
-12.8492 -31.5045 0 
-40.5071 -0.517314 0 
13.4496 35.4377 0 
2.23081 -12.5752 0 
-47.829 -19.4378 0 
20.8721 -23.817 0 
0.150812 -22.6949 0 
-7.91855 7.03933 0 
-26.4819 -48.0165 0 
-38.7258 5.2954 0 
-17.1622 16.2219 0 
-46.1934 20.5264 0 
-17.1694 -43.0158 0 
-43.4223 23.3769 0 
-6.07678 -60.029 0 
40.3848 41.2986 0 
-27.5714 -52.582 0 
-5.95607 21.3363 0 
26.1542 46.87 0 
35.3711 -10.0643 0 
-4.31292 2.74135 0 
12.3868 -42.3717 0 
47.7361 -29.8045 0 
46.2451 -30.6254 0 
-24.3018 1.1008 0 
-31.0473 -15.8597 0 
46.2511 38.1515 0 
-53.4097 -9.60307 0 
-3.25156 47.8334 0 
23.6489 -16.7896 0 
46.0898 22.5122 0 
29.271 -13.2944 0 
-14.4793 -47.4796 0 
-35.3116 29.3201 0 
-31.0681 -0.0418247 0 
-10.8856 -43.9343 0 
-14.7931 8.41006 0 
20.6869 52.9084 0 
7.13138 14.1271 0 
4.61179 40.9495 0 
-51.9103 23.4178 0 
18.1309 11.7499 0 
-41.8756 -1.30408 0 
-22.5242 -32.5751 0 
39.1939 -35.3761 0 
-23.6697 -55.5453 0 
-45.0403 -26.3114 0 
-27.831 -4.76019 0 
23.2649 -20.5329 0 
20.6129 32.7321 0 
42.0062 30.8444 0 
-25.8839 -21.5824 0 
39.7059 -17.0187 0 
26.4116 11.4669 0 
25.3838 39.7824 0 
-43.6545 38.7605 0 
16.0552 42.7693 0 
-22.9792 19.0521 0 
4.83988 9.8435 0 
11.3668 -18.2603 0 
32.1731 -43.9134 0 
-27.2781 9.1706 0 
34.8477 33.9677 0 
-12.9987 -0.933191 0 
-36.4205 -5.11821 0 
-26.7444 -25.3025 0 
42.8758 -39.7164 0 
-13.2703 20.2417 0 
-11.6244 49.1052 0 
-18.7483 43.4834 0 
47.9638 -18.7177 0 
16.7315 -33.5428 0 
27.341 4.65069 0 
-6.72599 -50.5615 0 
-15.4622 -13.1951 0 
-41.033 -15.8627 0 
-32.6497 -32.6321 0 
-48.6835 -12.8443 0 
1.89193 -55.5487 0 
-6.91399 -51.1805 0 
29.7048 -4.40056 0 
-43.4367 14.8575 0 
1.95618 23.6068 0 
-7.88409 -29.367 0 
10.7958 -58.6751 0 
-23.752 -34.0554 0 
-52.183 15.3464 0 
-5.48 56.766 0 
12.2794 5.97333 0 
-29.6745 25.0266 0 
-33.493 -33.8769 0 
22.2664 26.4896 0 
31.5476 44.6537 0 
5.8876 50.2752 0 
7.45942 -14.9334 0 
-22.6775 29.4581 0 
-43.6148 -12.4756 0 
10.5777 -37.5417 0 
23.1867 -44.054 0 
-32.1608 -36.7162 0 
4.2522 -32.1635 0 
-24.4581 -36.7938 0 
-20.2687 54.1105 0 
-7.99169 -36.5415 0 
47.0536 -10.1399 0 
0.334017 -13.4934 0 
23.814 -16.3263 0 
-2.17555 43.4883 0 
45.5709 -12.5744 0 
8.23249 21.9277 0 
-20.9259 -48.6415 0 
8.36127 -12.7236 0 
-6.52583 -4.1233 0 
18.5898 60.585 0 
-5.08063 -3.93069 0 
-58.8477 8.34293 0 
17.6406 -5.48938 0 
3.01952 -8.50583 0 
3.4804 46.3592 0 
13.609 0.888964 0 
-60.6252 -2.66495 0 
-2.81107 20.481 0 
21.6155 10.6867 0 
[...]
<CellData Scalars="wall variable 0">
<DataArray type="Float64" Name="wall length" format="ascii">
3.07769 6.40523 4.27525 1.27752 3.3459 0.984428 4.04627 0.616932 5.4807 2.7933 7.7237 4.16959 4.65336 1.39855 4.54704 3.79473 1.6841 1.55595 1.62087 3.77651 2.82496 5.48599 1.6677 2.66732 1.8247 4.02957 1.04905 1.03768 0.517239 8.07477 4.02957 3.93885 3.02031 6.62992 0.601513 3.89726 3.59941 3.52204 1.81435 0.423734 8.45442 5.52928 1.34122 5.07577 5.62181 3.68011 5.2958 3.91175 3.72807 2.01054 0.94356 5.1621 0.545835 4.87897 0.662173 6.76271 1.47614 2.71286 3.94984 0.909669 2.1152 0.821408 7.46047 4.44932 0.909669 3.27728 2.63287 5.66767 2.80705 7.32305 2.11853 3.92715 1.10675 2.83512 2.89925 1.20337 3.49887 2.96681 5.51574 2.48381 5.51167 3.50965 4.21501 1.23516 2.27418 0.982728 4.96182 2.35667 7.14731 1.76883 2.50587 1.46763 1.57697 2.98763 6.81272 3.10658 6.22827 6.3898 1.69903 0.302543 2.70082 4.3795 1.38596 2.77847 7.41231 2.73051 2.33318 1.77377 4.10711 7.22893 1.44427 2.15116 2.55726 7.43416 0.690665 10.2034 1.08067 6.58355 0.350116 3.07854 3.69617 0.82456 1.25728 2.17804 6.04445 3.93711 2.52441 4.39754 4.45177 4.3795 1.65318 7.21603 4.71929 1.77124 1.03744 2.64659 5.69052 0.499413 4.71543 4.12626 4.33257 8.96607 1.56948 5.00175 0.817896 2.494 1.8893 6.44482 3.89578 0.685811 3.36131 1.67079 2.35842 4.76704 5.75322 6.6448 2.90272 3.96892 1.37798 0.53759 6.9423 0.616932 3.5143 0.395131 1.27752 4.35052 2.51907 7.1298 2.02328 3.88025 2.07288 0.169707 4.5808 0.894705 4.68487 1.37216 9.51156 1.49428 1.98374 6.66396 2.48848 0.799299 2.49869 2.4616 1.54133 0.881871 0.994038 6.91768 2.15116 0.258772 4.6675 1.93473 1.85806 0.216741 1.48606 6.9112 0.402374 0.494037 3.8388 5.59797 3.41204 2.30283 7.68081 3.28122 4.636 2.42587 1.35962 1.16756 4.68487 8.85076 3.97624 6.98193 0.504771 5.91667 0.174215 0.824723 2.68918 4.96182 6.54468 1.78858 5.42269 1.23516 7.31273 3.42301 4.88831 4.84968 1.15021 4.77398 3.52672 6.24093 3.93711 1.8137 1.10664 7.37929 0.358309 0.478739 4.13902 4.69462 0.913603 1.67744 4.2506 4.20648 2.1694 0.913603 1.03012 3.68011 3.79341 0.798865 3.84845 1.75384 2.03496 6.30648 4.49357 0.607523 4.36871 1.06952 8.13107 2.88693 4.72005 1.22193 2.87195 5.07788 0.726293 3.9287 3.25988 2.82704 7.09713 0.83666 5.08268 0.698808 5.32173 0.169707 8.94832 0.191996 7.79128 1.75384 4.28058 0.910748 2.97788 2.18252 3.52365 8.68688 2.1661 3.51376 3.45543 0.983669 3.41425 8.43296 8.59194 1.29277 0.503151 0.467671 7.46047 2.0724 2.07288 2.33799 3.62978 0.113947 5.23786 1.27216 5.02467 1.1011 8.41795 1.02021 5.1058 1.76883 1.17443 2.79969 1.89383 5.73275 2.33403 1.63344 2.19457 0.594117 5.24429 3.85326 1.96072 4.33257 0.501117 3.30044 2.6732 0.873921 4.71929 0.524547 4.95121 2.68045 2.85729 4.92211 1.54133 8.03856 0.325456 6.2941 1.89694 1.54656 0.371396 2.03496 7.79128 5.07577 2.32877 0.554973 4.71254 3.63879 3.09802 0.876779 2.61494 6.2595 3.25737 1.53034 1.5726 3.18323 0.447016 6.14269 3.1536 2.76337 0.601621 1.62638 3.25737 2.70358 1.77377 2.32977 0.779029 1.87544 4.28771 0.983095 7.9929 4.49357 0.916194 3.29265 3.25696 5.14719 2.11334 9.1649 2.48848 0.850485 1.37214 4.98015 1.26271 0.985591 4.93066 3.91909 2.89627 2.07784 3.86588 0.418587 1.24918 3.3951 4.30305 0.888768 1.74709 6.62477 1.04913 6.35292 2.89925 1.78166 1.4122 2.69905 0.954415 3.18692 9.16516 1.81733 0.94301 3.83464 4.55521 2.95668 0.592833 0.687663 6.2263 1.59447 0.985591 7.03391 0.633117 7.3467 8.47696 1.06521 3.39102 1.32292 6.94895 0.782148 0.584022 1.87544 3.91348 3.68189 0.987419 2.35842 5.16233 5.13964 1.0628 3.01617 2.76337 3.30214 5.16953 7.57578 6.1487 0.338953 4.27391 0.281473 6.11459 3.65724 2.33403 2.17335 3.1492 0.353901 3.43615 3.44581 2.27351 6.49146 0.687663 4.81268 3.46977 1.0214 6.40866 1.30006 2.32637 2.574 6.04517 0.353901 8.88602 0.588738 2.52506 0.819693 7.31567 2.06513 4.69393 6.30648 0.371396 3.74395 1.49516 0.517613 1.59111 4.61134 0.562381 3.80839 0.937912 7.93575 0.824723 8.14161 0.478739 6.54345 3.16214 3.29152 1.63762 2.18821 0.873066 2.89627 0.546428 2.73807 5.53318 2.07784 0.873066 2.39548 1.6983 3.64789 1.13583 6.27153 1.04905 6.62992 0.62958 0.237051 2.13199 2.11115 2.52689 2.18819 1.90249 4.11632 4.21283 7.04161 2.00146 2.11853 0.2354 0.659532 3.41425 3.53164 7.36183 1.8247 5.24175 2.5363 0.824194 1.59111 0.260323 3.93885 4.71254 8.65557 0.76066 5.64081 1.72217 1.85001 2.49869 8.00774 0.954415 9.11581 0.18727 7.42754 0.812443 3.92116 2.32574 4.46575 2.73664 6.60502 1.22193 2.35889 5.91667 5.31216 4.28152 1.90704 6.55715 3.15291 2.33607 4.02968 4.11632 2.50296 1.14174 10.2693 4.05112 3.1878 1.47993 2.18252 7.04368 6.40866 1.1709 8.2685 1.6368 3.40155 0.453028 3.43615 2.06513 3.78074 4.11517 0.517613 2.95899 3.14399 0.389024 3.07769 6.87237 4.71069 3.68211 4.83843 1.12504 2.1896 0.51784 2.35507 7.37929 3.07765 3.6663 3.62131 0.367294 6.94031 2.73717 3.52419 4.27391 0.377077 0.342672 9.70286 2.79969 3.30295 2.32574 2.6105 3.9262 2.42587 0.400481 0.382992 2.43338 3.13009 1.81435 2.21249 1.19789 8.00555 1.70298 2.32786 0.827528 1.1987 0.509245 3.80839 7.49927 0.502765 8.42858 3.25834 2.61319 4.44163 4.71085 2.04168 0.494037 3.99721 0.338538 5.88782 0.455218 6.55418 1.06276 3.64087 3.9287 3.91122 1.28434 5.66767 0.686476 4.94539 4.71085 0.525062 0.378309 8.759 3.74395 1.54656 8.26563 0.269274 8.94832 1.49428 0.910493 3.0944 1.83003 4.39754 1.38349 2.32877 1.34122 1.66108 2.4249 2.70358 6.2595 3.61876 1.74709 1.01261 2.51907 2.0724 0.821408 6.23834 0.651482 10.1699 2.17921 6.2786 2.66466 1.209 4.40807 4.91673 0.436106 2.23683 6.77897 0.82456 6.01646 0.812443 1.55428 2.64329 3.1054 2.78706 0.415375 1.3101 0.577322 2.37826 3.42301 2.15628 2.31774 8.31926 3.38146 6.86 1.81728 4.52054 2.76123 2.90571 4.39114 3.5555 3.58893 4.2506 2.22093 7.17487 1.17674 4.04026 2.07429 4.21785 3.73213 3.44392 6.8969 1.63344 4.12626 1.51033 7.90277 2.36141 6.55715 3.00895 2.42066 3.69073 0.994038 3.26352 1.35556 6.21925 0.709429 10.4792 0.513151 2.58649 3.21268 6.61363 3.68785 6.70739 2.21355 8.07971 5.4225 1.92737 3.00597 1.26656 10.1699 0.90556 6.58275 2.36732 0.728593 2.35048 3.93081 1.12504 4.22104 5.1621 4.3782 6.06174 2.16397 4.59373 4.81268 0.592833 1.69912 8.68688 1.47993 7.55403 5.25303 4.13485 0.325456 0.191996 2.3222 4.98015 3.15123 6.58355 0.50364 8.66869 2.95899 1.49516 8.759 6.2786 0.851378 5.44278 1.28664 4.21626 0.851509 0.74395 2.46495 2.03863 4.39114 2.45893 8.2685 3.08505 1.06276 2.8159 2.99914 1.26799 6.80813 1.03335 2.22093 3.25331 1.53404 3.44581 0.453028 8.66869 2.06774 1.04666 7.07825 1.24367 3.19107 2.76568 1.56033 0.353784 0.63238 2.27351 3.01636 5.50011 6.94895 1.35396 7.23578 1.92737 3.78183 4.91673 0.543646 1.79823 10.3495 0.341656 2.42066 2.55062 4.92113 3.74574 4.95121 3.01555 1.56093 1.69501 1.209 6.48346 6.15846 0.178698 0.880352 2.73227 3.77651 0.74395 3.04982 2.76123 1.59722 2.64659 8.2413 0.789919 8.98191 1.25728 1.3101 8.38503 1.52657 0.609293 7.16121 1.56093 2.56296 1.81728 3.50487 2.27418 2.16405 1.655 4.5308 5.25042 0.353784 7.78182 0.53759 9.36831 1.27216 1.64829 6.08271 3.25696 0.94657 0.260323 7.93575 8.45876 0.62958 3.02031 3.74614 0.583993 3.13035 3.28129 0.367294 1.47987 4.15721 0.379672 1.39855 1.53419 4.46881 0.527313 1.24021 2.4812 4.17492 1.15094 2.32258 4.17963 2.6538 0.655064 3.53164 1.29277 4.07917 1.14328 0.819667 2.87242 0.984428 2.59105 3.07765 0.342793 4.91988 0.216741 7.24412 2.33799 3.88025 1.73304 1.60268 3.26352 2.49288 1.96211 2.6538 3.37599 5.61963 0.627037 8.11772 0.577322 0.63418 2.84298 4.2458 0.439049 3.80589 3.03802 5.85474 5.17271 2.49365 0.498072 7.21603 3.13326 1.58066 0.690665 2.24004 3.10658 0.645629 0.302543 9.3071 5.05219 2.49288 2.8185 0.645629 0.402751 7.37637 2.71286 0.763601 2.68759 2.35667 2.68918 0.302965 2.72495 1.91988 1.09753 4.54704 0.379672 3.57168 2.7996 3.73934 6.62477 3.61876 2.6772 1.02659 6.79196 3.16214 2.66909 0.303001 6.1487 0.957185 3.69073 0.341656 3.06216 0.784236 2.55726 6.91768 2.08219 5.62181 0.876779 0.718376 3.28031 3.00895 1.90704 3.04433 5.90981 5.18764 2.21192 2.91046 1.87029 5.01886 2.63062 3.90269 1.30006 3.40155 6.28559 7.03391 1.26271 2.73385 0.644723 0.827528 7.49311 0.540741 1.17049 2.5213 1.68638 6.5226 2.67164 3.42011 3.93053 0.447016 2.4249 8.75124 0.339411 3.69016 10.2034 1.58066 2.3599 2.11202 2.82704 1.69903 0.252806 1.79823 2.26155 4.3782 0.94356 0.572938 9.3071 1.70298 0.469535 6.64525 0.630306 5.76692 0.692746 5.56774 1.54826 6.71556 0.439049 1.33482 0.936808 4.77398 3.16269 0.99441 2.802 0.191328 1.64829 5.23786 2.03774 6.98193 2.55062 6.21925 0.818311 6.57361 2.58785 0.363788 0.513151 4.5882 1.56948 3.98796 1.55428 7.42754 4.28058 3.84845 2.87794 4.41663 0.427235 2.51414 2.5899 3.28122 3.19618 0.358778 9.77528 0.956883 4.30709 0.639585 2.11334 2.3222 1.08067 8.98191 1.40855 0.583993 4.61246 6.5355 9.47039 3.25331 4.21785 3.88739 1.46763 6.10603 2.33387 4.76704 2.5363 4.76828 2.34641 4.09405 2.46852 4.30709 3.26698 1.20337 6.35292 1.60268 9.6974 0.817896 0.611917 7.63773 0.818311 1.35556 1.19789 7.36284 1.39148 3.46977 4.59373 0.861816 0.806362 1.9441 3.73213 4.71543 2.67359 5.83859 4.19532 5.53318 1.00909 1.50358 3.52672 0.936808 4.75452 2.21668 6.71 2.59967 3.36131 3.01299 5.91912 3.30044 1.65277 3.90618 5.14812 2.92463 1.0628 3.23984 4.56073 2.76641 6.03437 1.76457 1.6677 0.91946 3.30214 3.1536 3.29687 3.26771 1.27194 1.655 2.41202 0.738022 5.01886 1.27028 3.69156 4.91988 2.45985 8.74768 3.60531 3.90915 0.881019 4.16078 7.10249 0.639585 2.46852 1.04913 8.00774 0.799299 9.1649 4.73256 3.21425 3.5022 1.8832 4.43498 0.198631 1.21464 1.24492 7.04368 2.97788 5.9662 1.37794 0.584022 7.30664 2.77046 2.95465 4.28771 0.349715 9.70286 2.78425 3.44392 1.9441 2.15355 1.90249 0.622605 7.32364 1.6841 4.80983 0.807247 2.50296 4.13746 6.58211 3.24435 2.77046 1.88058 2.98814 1.1987 6.5226 3.50859 6.71 3.0944 4.06981 0.881871 4.92211 5.9563 2.7996 3.85056 4.17492 2.05148 6.62577 1.11997 1.55638 7.22893 2.79886 3.36382 5.08268 1.92117 5.08478 0.506395 3.12751 0.362484 8.42858 3.99721 0.402374 3.57875 3.19107 5.12746 1.54826 7.34988 1.63963 2.31533 1.32728 4.25222 0.601621 7.57578 0.860222 0.744788 1.63963 2.30462 5.96154 2.63604 3.59941 0.463547 4.13746 0.870605 5.16226 1.32292 4.16783 6.2263 6.49146 0.63238 3.7423 9.77528 3.1164 4.73256 0.113947 7.82539 2.06774 5.25042 0.304924 2.73664 0.504771 2.03774 1.32669 6.77897 6.18554 4.10487 2.24004 7.43416 0.784236 3.49771 6.22827 1.54805 3.1054 4.1784 1.8893 1.70479 1.90595 6.40274 3.74937 1.81733 2.82311 1.83738 6.58275 1.92206 0.611917 5.00175 4.5882 10.4792 3.83332 5.16226 2.16444 3.01636 1.0214 1.39148 3.13009 7.28481 3.90915 3.53054 0.423734 0.342793 6.94031 3.28129 4.26713 0.695393 2.45985 1.47589 8.74768 0.695393 3.29017 0.633117 6.76185 1.67079 2.59967 3.50859 1.68638 4.61509 5.16233 0.389024 2.37229 3.53247 3.42011 2.48523 6.40523 3.86588 6.27153 0.12697 0.910959 3.98031 2.73385 2.33387 2.61242 1.51501 1.27028 1.47589 1.01503 1.49076 5.19045 3.74783 6.38781 3.45349 0.662173 1.82442 0.683682 3.3951 8.70546 2.78706 1.54805 3.28298 3.29687 1.87029 1.6368 2.45893 2.90571 1.67744 3.72807 1.09158 1.01261 0.888768 5.63108 1.90595 3.13312 7.1298 2.98763 6.28762 0.683682 2.54666 2.58649 0.363788 0.18727 2.50951 1.16756 6.82776 0.350116 3.15123 1.37214 5.63497 0.220792 1.37216 0.910959 1.44081 4.21283 4.02968 2.10732 6.96977 1.56886 5.91921 3.77032 0.560203 9.96235 0.448131 7.5767 0.785075 4.90729 6.07459 0.607523 5.14719 6.08271 0.191328 3.69585 2.05847 1.52716 9.54647 0.384891 4.66736 6.07459 0.395131 8.57519 0.819667 0.808138 6.87237 3.3459 3.25988 3.64087 3.08505 1.78268 2.15455 0.258772 1.44427 3.69016 0.956771 2.11115 3.12597 3.89578 0.404916 5.51167 0.779029 9.87381 0.546428 3.91909 4.80875 3.91348 3.04844 0.338538 5.12746 1.24367 1.51909 1.56886 0.174723 2.49365 0.318183 4.20648 3.58893 5.34723 1.11583 4.55521 2.7926 3.18692 1.11583 1.16595 3.25576 4.44163 7.76755 0.603554 2.43872 7.98867 0.698808 3.36382 1.35349 0.588738 5.19226 2.63287 3.59678 0.402751 5.74198 0.643217 1.24365 6.14102 0.686476 0.473538 4.04026 2.93576 1.10675 2.20576 6.38781 4.29478 7.06691 0.339411 0.350516 5.31216 1.60228 1.1011 0.174723 9.96235 5.01994 2.96681 0.338104 3.03802 1.78485 5.18764 3.01652 1.5726 8.51422 2.66909 6.54345 0.358309 2.35507 10.9207 2.52689 0.956771 2.48381 4.84968 0.214583 8.24709 1.78858 0.811825 2.89736 2.574 3.10693 0.643217 6.17389 2.41202 7.78182 1.56033 4.39513 1.48606 1.92108 0.595226 3.19618 7.68081 1.65272 9.54647 2.43872 2.11785 2.17335 5.73275 7.09787 0.909794 3.45682 6.2941 4.13485 1.68546 0.448131 4.66736 1.26799 3.10141 3.00597 7.23578 3.56505 1.62087 2.47462 0.257259 2.31774 5.45887 1.90182 0.858136 6.48346 1.47987 3.62131 3.47387 3.22456 1.53419 8.06496 3.97624 3.29152 6.79196 0.812111 3.69585 2.802 0.112392 9.60231 1.16595 5.34723 3.5555 2.03863 1.11997 7.20491 1.42771 5.01745 3.11467 2.72495 2.21249 3.52204 2.63604 3.83332 7.36284 2.31533 0.744788 4.58438 0.517239 3.35959 5.79992 0.463547 3.89726 6.37608 2.27755 6.58211 0.782148 5.50011 2.16444 0.870605 1.88058 7.30664 4.25222 3.60278 3.80589 6.71556 1.57697 3.88739 2.07429 0.473538 3.74783 6.28762 7.31567 7.80102 0.691141 3.78074 4.39513 2.76568 3.57875 6.9112 0.252806 6.3898 3.49771 3.06216 10.3495 0.607513 5.07788 2.16138 3.26771 1.09158 3.91175 4.80983 5.48599 2.43691 5.67311 2.63062 0.738022 1.92108 5.59797 2.16549 6.74197 2.6772 6.23834 2.1152 4.44932 1.28434 2.14082 1.83405 7.36183 0.655064 1.96211 5.05219 0.572938 2.01054 2.16405 7.14731 2.68759 7.17526 3.90269 6.74197 0.584525 1.24365 3.10693 2.32637 5.73784 7.09291 1.6983 3.21185 0.304924 4.5308 1.27194 2.16138 2.87195 6.60502 0.634951 1.95473 5.20408 3.64789 7.09291 1.37798 0.497437 4.29478 5.02467 9.36831 1.93473 6.95795 0.834717 0.543646 4.40807 1.32669 2.9632 3.0102 6.51934 1.43629 0.730717 6.5355 1.09061 1.65423 4.2458 5.35039 1.63762 4.19532 1.33482 1.1709 6.04517 2.89736 1.69266 3.38146 3.04982 0.851509 0.88286 0.609293 7.17526 0.763601 1.47614 0.467671 10.009 5.42269 6.17389 5.74198 0.302965 3.23984 5.13964 4.61509 2.5213 3.89027 5.26823 0.99441 1.98969 2.21192 1.78485 1.54419 2.30462 7.34988 4.07917 8.59194 1.31144 0.198631 4.04953 2.89309 3.14036 3.50965 0.404916 4.76704 0.987419 2.95774 1.90182 1.60882 3.59678 3.27728 3.94984 7.37637 5.8589 5.08478 3.92949 8.50741 2.46495 8.2413 1.03744 0.785777 8.50741 1.00829 0.112392 2.66466 4.21626 4.10097 1.65277 0.501117 3.74574 2.18819 8.24709 1.93521 2.61283 3.35959 1.03768 1.03012 4.69462 2.07516 2.88693 0.607513 5.2958 1.59319 2.19457 6.8969 2.78425 0.342672 9.16257 3.93081 6.69538 0.594117 1.59319 2.8822 2.1896 2.8185 5.61963 0.759056 1.44637 1.38596 4.45177 0.498072 1.00829 3.92949 1.92117 0.502765 3.25576 9.60231 3.83464 5.48222 1.8137 2.1694 2.7926 3.71604 6.62563 1.01503 6.76185 3.39102 6.57361 7.63773 1.92206 0.709429 1.38167 3.55968 3.5143 4.04627 2.87242 8.57519 3.68211 5.07737 2.61242 4.09405 1.95238 0.424217 7.35672 4.46881 3.22456 3.20796 2.7933 4.76704 5.19045 2.16193 4.61134 0.824194 5.16188 2.83411 1.8101 2.1661 1.69912 2.95668 6.28559 0.237051 8.45876 0.937912 0.509245 2.98814 2.21668 6.3656 0.525062 5.88782 3.04844 3.96139 1.02659 2.14082 1.78268 6.80813 3.56505 1.35396 0.834717 3.9165 2.4812 5.88677 2.73717 0.349715 0.493956 2.35466 2.05148 0.334911 4.11179 0.840606 4.43778 2.6732 5.91912 8.47696 2.11648 9.47039 0.730717 3.36766 4.87897 4.50869 3.21268 2.54666 1.82442 1.53404 6.10603 2.50587 5.1058 3.65724 3.09802 5.82956 1.78166 2.83512 2.50716 0.718376 6.16579 5.63497 0.850485 6.66396 2.93576 1.17674 4.08695 4.636 2.5899 2.53486 2.80705 2.66732 1.76457 1.63018 4.76828 5.24175 4.94539 6.14102 0.584525 2.16549 3.8388 2.04168 2.79886 4.10711 7.9929 0.953576 2.52506 1.35349 0.677209 2.3599 3.13326 1.65318 2.70082 1.2064 2.7845 6.6448 4.21501 1.60882 5.45887 2.15628 7.31273 4.71069 0.808138 1.14328 3.69156 1.51501 5.07737 0.545835 4.22104 0.615371 1.38167 6.61363 4.50869 0.524547 5.69052 1.59722 4.52054 2.56296 3.01555 2.84298 0.482657 3.21185 2.39548 2.18821 5.35039 4.43778 8.91389 0.506395 5.8589 0.785777 1.77124 0.873921 0.94657 3.29265 1.07518 0.424217 5.4807 6.9423 1.83405 6.76271 3.45349 2.20576 3.92715 2.00146 0.603554 0.426864 4.26017 4.51507 2.37199 2.82311 9.16516 0.174215 2.35889 4.72005 2.07516 4.13902 8.14161 0.622605 7.04161 1.44081 0.12697 1.13583 5.20408 2.32909 4.11517 0.691141 0.723183 6.37608 0.601513 0.994967 3.79341 4.69393 0.549509 3.71604 1.06521 3.36766 1.43629 4.07115 6.64525 3.28298 6.40274 5.63108 4.30305 0.400481 8.85076 0.894705 1.8951 7.09787 1.89383 1.59447 4.16783 3.68189 4.80875 4.93066 2.53486 2.51414 5.45404 0.2354 7.32305 0.91946 8.07477 4.58438 0.860222 5.16953 0.858136 2.95774 3.01617 2.92463 4.31398 6.15846 4.6675 2.15455 3.9165 6.95795 0.615371 6.06174 2.26155 4.92113 2.58785 3.55968 0.88286 2.47664 0.436106 3.78183 5.4225 0.651482 1.69501 7.16121 3.29017 4.26713 3.13035 1.40855 2.11648 7.3467 0.346048 2.68045 0.812864 4.30492 3.18323 3.01652 5.90981 2.59105 7.7237 3.20796 3.47387 3.6663 2.32909 1.95473 4.16102 2.47462 1.55595 7.32364 0.350516 8.75124 1.66108 5.52928 2.08219 4.28152 3.93053 3.53247 3.24538 2.76641 6.14269 0.318183 5.17271 2.02283 1.52657 2.98679 0.418587 3.73934 3.96139 5.01655 8.41795 1.60228 3.15291 2.36141 0.891487 0.497437 4.35052 4.27525 2.48523 2.67164 7.06691 2.52441 6.24093 1.50358 4.47593 2.73051 1.55638 0.83666 0.269274 9.29204 0.789415 0.630306 4.07115 6.51934 1.24918 2.98679 8.38503 0.415375 8.70546 0.994967 8.45442 3.53054 3.60531 1.2408 2.87794 0.798865 4.15721 8.06496 1.15094 3.85056 3.57168 0.957185 6.11459 2.35889 4.36871 2.05847 0.812111 0.909794 1.8951 4.5808 5.32173 7.98867 1.03335 0.50364 0.378309 3.28535 3.41204 4.08695 7.17487 3.91168 1.80853 3.68785 0.816673 2.8159 6.55418 0.338104 3.49887 3.26698 0.956883 0.789919 2.02283 5.85474 1.35962 3.9262 4.31837 3.07854 6.82776 0.303001 10.9207 0.51784 2.8822 9.16257 0.377077 0.338953 3.24538 2.37229 3.14399 1.95238 2.34641 1.63018 6.03437 0.165515 3.77032 4.04953 3.59181 0.891487 7.90277 3.98031 6.96977 1.73246 1.73559 5.16188 0.644723 3.28535 8.26563 1.89694 3.45682 0.384891 1.65272 2.30283 2.32786 5.56774 2.1562 3.21853 7.49311 1.85806 2.9632 4.10487 0.491789 3.62978 7.24412 0.554973 1.38349 2.61494 4.30492 4.24278 8.65557 1.2408 7.10249 0.483947 5.9662 0.910748 4.41663 1.83003 5.9563 2.85729 0.346048 3.04433 3.47559 2.17804 2.15355 5.83859 1.10164 1.18396 3.06762 1.42771 4.31185 0.493956 1.32728 5.79992 2.61283 2.68148 0.627037 3.60278 3.69617 4.31837 2.6105 3.92116 6.01646 2.32977 2.33318 4.47593 1.00909 2.73807 9.87381 1.71231 4.04953 5.91921 1.51909 7.07825 0.916194 8.13107 2.22766 0.527313 7.35672 1.07518 0.63418 8.31926 0.257259 4.16102 0.634951 5.73784 0.482657 1.02021 5.01655 3.59181 1.71231 1.04666 7.82539 2.82591 2.79142 1.09061 4.61246 3.74614 4.65336 6.62577 2.35466 4.31185 7.20491 0.816673 8.07971 2.07376 0.851378 2.17921 1.26656 3.10141 2.99914 4.32662 7.14423 0.759056 3.37599 4.17963 0.74499 9.11581 2.69905 3.5983 5.64081 2.47664 10.009 0.503151 0.491789 6.18554 2.23683 0.910493 9.51156 0.220792 6.16579 1.98374 4.06981 2.50716 5.51574 5.01994 0.560203 0.165515 1.51033 3.28031 1.73304 2.02328 3.13312 1.70479 2.494 9.6974 2.13199 6.3656 4.75452 0.685811 3.12597 1.17443 6.81272 2.50951 4.46575 3.30295 1.69266 0.811825 6.54468 0.982728 3.50487 6.86 2.68148 1.93521 0.214583 4.88831 2.37826 8.11772 3.47559 2.91046 1.98969 3.16269 1.15021 6.04445 0.812864 8.03856 2.4616 1.85001 0.74499 0.76066 4.24278 1.24021 2.22766 1.06952 2.35889 0.281473 3.52419 5.88677 3.1492 2.11785 5.19226 8.88602 1.54419 8.51422 1.53034 1.62638 5.96154 0.659532 5.45404 0.427235 3.7423 1.21464 1.31144 8.43296 2.35048 3.07061 0.45195 5.24429 6.69538 0.469535 7.49927 0.562381 2.16193 1.49076 6.62563 0.549509 3.98796 6.44482 4.1784 2.64329 0.819693 0.953576 0.983095 2.95465 3.24435 2.27755 0.723183 7.80102 3.05179 7.09713 2.11202 0.677209 5.75322 0.42192 0.94301 3.74937 0.90556 4.83843 1.10664 5.48222 3.63879 1.72217 3.5983 1.4122 5.82956 
</DataArray>
<DataArray type="Float64" Name="wall variable 0" format="ascii">