<VTKFile type="UnstructuredGrid" version="0.1">
<UnstructuredGrid>
<Piece  NumberOfPoints="    2515" NumberOfCells="     420">
<Points>
<DataArray type="Float64" NumberOfComponents="3" format="ascii">
32.6299 -30.3848 0.0
31.9605 -31.2121 0.0
36.7319 -35.2212 0.0
38.4591 -33.8403 0.0
38.3842 -28.3341 0.0
22.9221 35.5452 0.0
21.8697 35.4005 0.0
21.5452 33.0836 0.0
21.2339 30.0351 0.0
21.7549 29.6146 0.0
25.4281 29.5284 0.0
25.9021 30.5545 0.0
27.9877 -20.7453 0.0
27.7267 -17.1868 0.0
21.5847 -19.5631 0.0
20.9554 -21.1411 0.0
21.6774 -22.1468 0.0
-0.141392 15.7919 0.0
-2.04127 17.7345 0.0
-8.7686 12.7911 0.0
-10.6134 11.4274 0.0
-10.3371 8.92585 0.0
-10.0105 8.57737 0.0
-1.14806 14.857 0.0
56.7265 -7.80077 0.0
56.5541 -7.33488 0.0
50.2158 -5.83847 0.0
49.4708 -6.79196 0.0
51.0093 -9.82119 0.0
55.5906 -9.10235 0.0
12.8023 -19.9633 0.0
11.0217 -18.7851 0.0
4.43762 -20.2822 0.0
4.06843 -20.9511 0.0
6.07569 -22.8453 0.0
-33.5639 -3.24318 0.0
-34.3241 -2.73044 0.0
-37.5626 -2.51511 0.0
-36.5623 -7.63343 0.0
-33.3807 -10.6512 0.0
-32.8894 -10.9234 0.0
-31.9423 -10.6647 0.0
13.4559 -19.6218 0.0
15.0638 -17.1968 0.0
12.5991 -12.6187 0.0
9.19131 -13.5259 0.0
11.4394 -18.312 0.0
13.22 -19.4901 0.0
-32.8876 30.0111 0.0
-30.9511 36.0309 0.0
-30.9591 37.0996 0.0
-31.2888 38.3678 0.0
-32.5843 38.4729 0.0
-33.6029 37.4598 0.0
-34.5563 35.3825 0.0
17.1159 -37.8345 0.0
13.3315 -37.5241 0.0
12.7289 -37.9308 0.0
12.3578 -40.8936 0.0
13.8728 -42.2629 0.0
17.0014 -42.1092 0.0
-57.406 -13.271 0.0
-54.2793 -13.7915 0.0
-49.6146 -9.10501 0.0
-48.2797 -7.7365 0.0
-48.5318 -7.45371 0.0
-54.9251 -8.99169 0.0
-58.3693 -10.0725 0.0
-40.481 -15.6728 0.0
-44.9558 -13.4852 0.0
-46.2336 -14.9761 0.0
-46.2716 -17.9197 0.0
-45.4859 -20.8483 0.0
-45.3298 -20.9211 0.0
-53.2425 -18.7827 0.0
-53.4 -15.3406 0.0
-54.4616 -14.4299 0.0
-57.5882 -13.9093 0.0
-58.162 -15.4445 0.0
-57.7322 -19.8644 0.0
-57.3829 -20.5638 0.0
-11.2895 -9.80393 0.0
-11.822 -12.3977 0.0
-7.10692 -14.3462 0.0
-5.84549 -13.0417 0.0
-6.36391 -10.8605 0.0
34.0989 -7.39162 0.0
36.4729 -3.48984 0.0
36.0779 -3.0876 0.0
32.6065 -2.73029 0.0
32.1744 -3.20868 0.0
28.2545 -7.38493 0.0
28.0657 -8.52187 0.0
28.1935 -8.96176 0.0
-14.2339 -32.7806 0.0
-15.4465 -32.858 0.0
-19.3728 -33.8784 0.0
-18.8515 -36.8787 0.0
-16.2083 -39.0359 0.0
-15.969 -39.0558 0.0
-20.0204 50.838 0.0
-21.0515 50.6903 0.0
-22.0635 44.8167 0.0
-20.5138 44.3278 0.0
-17.4615 44.672 0.0
-16.9056 48.101 0.0
-18.6765 50.3057 0.0
-40.3935 18.3459 0.0
-42.5744 17.8721 0.0
-42.7261 17.4854 0.0
-43.777 13.929 0.0
-41.3733 11.7075 0.0
-39.5151 12.0802 0.0
39.6977 -6.09211 0.0
38.8095 -4.57634 0.0
37.6398 -3.60703 0.0
36.9077 -3.59327 0.0
34.5337 -7.49505 0.0
33.8097 -10.9347 0.0
33.5442 43.6042 0.0
34.716 44.0222 0.0
32.9784 48.3572 0.0
29.9631 49.4076 0.0
28.5903 49.3854 0.0
26.797 48.5734 0.0
51.4221 26.8507 0.0
51.7079 26.9638 0.0
51.7713 27.4141 0.0
51.6477 27.9768 0.0
49.8489 30.3696 0.0
47.8661 31.1534 0.0
43.9777 29.458 0.0
43.1196 28.3563 0.0
-14.3448 23.2079 0.0
-14.4816 23.3446 0.0
-17.1629 23.3869 0.0
-20.3046 18.8243 0.0
-20.9703 17.8009 0.0
-20.7502 15.5613 0.0
-19.0749 15.0651 0.0
27.6207 27.776 0.0
30.362 29.8435 0.0
28.7531 35.1533 0.0
26.4052 30.4459 0.0
25.9312 29.4198 0.0
38.5434 19.409 0.0
40.0387 20.0842 0.0
40.4115 24.3807 0.0
40.4528 25.0711 0.0
39.967 26.1235 0.0
37.5857 26.8841 0.0
36.7712 26.3871 0.0
36.0648 24.6624 0.0
43.3093 -33.2335 0.0
44.155 -31.3353 0.0
45.8741 -27.4089 0.0
45.7655 -26.8323 0.0
40.6646 -27.2635 0.0
-39.2753 18.5358 0.0
-40.0373 18.3183 0.0
-39.1589 12.0526 0.0
-34.5733 12.4621 0.0
-37.6562 27.9576 0.0
-38.0556 28.9101 0.0
-40.7453 27.5887 0.0
-44.7527 25.5852 0.0
-45.5458 24.9358 0.0
-45.3823 22.8863 0.0
-43.5194 20.8058 0.0
-50.0773 26.2017 0.0
-47.7227 26.3965 0.0
-47.7999 30.184 0.0
-48.589 31.3561 0.0
-51.1247 32.1477 0.0
-52.7033 30.6569 0.0
57.529 -17.0995 0.0
56.6429 -16.379 0.0
49.9921 -17.9344 0.0
49.6467 -18.6047 0.0
49.5465 -22.6645 0.0
52.3758 -23.2434 0.0
26.3734 -47.4596 0.0
30.0892 -44.2439 0.0
26.4998 -42.2832 0.0
23.7297 -43.4679 0.0
24.0858 -46.7403 0.0
24.9137 -47.7184 0.0
-43.8894 0.660847 0.0
-45.009 2.04027 0.0
-50.8649 4.11679 0.0
-51.3908 0.651776 0.0
-48.0022 -1.94232 0.0
6.23271 38.065 0.0
3.5415 39.421 0.0
1.93972 38.574 0.0
-3.07917 33.0187 0.0
-2.132 32.507 0.0
8.63966 23.5361 0.0
8.11147 22.747 0.0
7.3942 15.5465 0.0
8.06228 15.3046 0.0
8.49412 15.5855 0.0
11.1273 18.8255 0.0
11.5689 21.6661 0.0
10.5215 23.3269 0.0
8.61051 37.0115 0.0
6.40167 37.8864 0.0
-1.96304 32.3283 0.0
-0.476338 31.1994 0.0
1.02439 31.6747 0.0
7.36042 35.8838 0.0
-28.3059 -29.5375 0.0
-28.8604 -28.9376 0.0
-30.054 -28.7895 0.0
-33.4521 -32.0103 0.0
-34.1417 -33.9394 0.0
-32.4674 -35.5774 0.0
-30.4798 -37.2025 0.0
48.5489 -35.3891 0.0
48.5813 -35.0451 0.0
44.4123 -31.9302 0.0
43.5667 -33.8284 0.0
43.0917 -35.0311 0.0
47.755 -38.2208 0.0
-4.46827 33.0507 0.0
-3.48974 33.0335 0.0
1.52915 38.5887 0.0
-4.68465 38.5004 0.0
-4.08882 -61.5169 0.0
-1.73683 -60.4152 0.0
-5.8548 -52.0367 0.0
-6.0916 -52.0501 0.0
-7.00755 -57.2344 0.0
-6.39982 -61.1237 0.0
-6.00775 -61.3109 0.0
-21.8157 25.7337 0.0
-22.5197 25.7737 0.0
-24.9122 25.3619 0.0
-24.3437 21.4403 0.0
-21.8151 18.3497 0.0
-21.4378 18.0947 0.0
-20.772 19.1182 0.0
47.5975 -23.9153 0.0
48.8512 -22.8565 0.0
48.9514 -18.7968 0.0
43.5348 -20.4277 0.0
40.398 -22.0688 0.0
43.5569 29.8948 0.0
47.4453 31.5901 0.0
46.4942 33.6279 0.0
44.0487 36.5768 0.0
40.4159 35.1103 0.0
39.5163 34.6922 0.0
41.4312 32.2684 0.0
-49.7495 17.8325 0.0
-46.104 22.5014 0.0
-46.2674 24.5509 0.0
-47.4564 25.198 0.0
-53.8233 18.5664 0.0
23.0021 -43.4709 0.0
19.4108 -45.1017 0.0
17.1242 -49.2276 0.0
23.5338 -46.8822 0.0
23.1777 -43.6098 0.0
-45.7375 12.0236 0.0
-45.1266 13.2422 0.0
-50.2388 14.5454 0.0
-53.7477 10.7619 0.0
-51.3562 8.54275 0.0
-48.1978 9.38344 0.0
7.62405 35.7065 0.0
1.28801 31.4974 0.0
7.79159 31.0263 0.0
8.90535 31.6356 0.0
21.8393 1.93624 0.0
21.4311 2.35046 0.0
15.9269 -1.43562 0.0
16.3516 -3.77145 0.0
17.4286 -4.3309 0.0
19.9341 -2.74034 0.0
7.51508 -12.0897 0.0
8.26635 -12.2999 0.0
16.7552 -6.00516 0.0
16.7598 -5.0194 0.0
15.6828 -4.45995 0.0
14.8637 -4.54076 0.0
7.78013 -9.99523 0.0
28.0709 38.7869 0.0
21.5145 41.7464 0.0
21.1133 36.5407 0.0
21.9613 36.0496 0.0
23.0136 36.1942 0.0
28.196 36.9716 0.0
-6.24798 -34.3657 0.0
-6.85827 -34.6778 0.0
-5.46163 -40.7694 0.0
-1.36138 -36.9024 0.0
21.0748 -14.7677 0.0
18.8088 -13.533 0.0
15.577 -17.3076 0.0
13.9691 -19.7326 0.0
14.1467 -20.2246 0.0
15.7967 -20.421 0.0
28.2241 12.9759 0.0
30.2637 8.19903 0.0
32.5327 9.4325 0.0
36.0319 12.1807 0.0
36.0738 12.4536 0.0
35.3743 14.674 0.0
-48.561 -3.25177 0.0
-48.4308 -2.18713 0.0
-51.8194 0.406964 0.0
-53.0833 0.302174 0.0
-56.0184 -0.379588 0.0
-56.6458 -1.64724 0.0
8.23632 -50.8244 0.0
6.66465 -47.2987 0.0
1.17722 -49.1459 0.0
3.61408 -50.7849 0.0
7.61797 -51.5746 0.0
-16.0101 43.3754 0.0
-10.8092 46.967 0.0
-12.8513 49.8559 0.0
-16.3774 48.0452 0.0
-16.9334 44.6162 0.0
-27.8866 26.8522 0.0
-29.9082 25.3804 0.0
-26.915 20.3623 0.0
-24.7719 21.593 0.0
-25.3404 25.5147 0.0
-26.3331 26.7909 0.0
-44.2693 14.0107 0.0
-43.2184 17.5671 0.0
-49.5404 16.8104 0.0
-49.9257 14.9586 0.0
-44.8135 13.6555 0.0
20.3672 20.1566 0.0
19.5346 19.9819 0.0
16.7525 16.222 0.0
19.6356 12.4165 0.0
21.7189 13.5692 0.0
23.7487 15.3517 0.0
21.3524 19.5347 0.0
31.7701 0.911707 0.0
32.3092 0.0141608 0.0
39.0851 5.24271 0.0
39.8682 6.81029 0.0
37.786 8.49673 0.0
33.8673 3.88933 0.0
14.6467 -4.28071 0.0
8.87038 -2.16372 0.0
6.6953 -6.87714 0.0
7.5631 -9.73518 0.0
20.4461 -2.72888 0.0
22.8448 -3.91093 0.0
25.9232 -5.05417 0.0
26.1471 -1.72367 0.0
26.331 1.74865 0.0
25.099 2.3166 0.0
23.5563 2.22779 0.0
22.3513 1.9477 0.0
32.7852 -12.9059 0.0
33.209 -11.3782 0.0
33.933 -7.93858 0.0
28.0277 -9.50872 0.0
27.8779 -10.4558 0.0
27.7569 -13.4903 0.0
28.537 -14.2238 0.0
32.0634 -13.6435 0.0
-30.4362 -37.9512 0.0
-32.4238 -36.3261 0.0
-32.7812 -40.6512 0.0
-28.7978 -43.8603 0.0
-28.1716 -41.0884 0.0
25.7938 -54.6139 0.0
23.7966 -50.7589 0.0
19.0233 -53.7802 0.0
19.2379 -56.0859 0.0
-4.71397 20.4267 0.0
-7.11623 20.0973 0.0
-11.5142 13.0074 0.0
-10.8793 11.7204 0.0
-9.03448 13.0842 0.0
36.3258 11.8366 0.0
32.8266 9.08843 0.0
33.7707 4.27567 0.0
37.6894 8.88307 0.0
-32.9463 4.17167 0.0
-33.4488 3.68212 0.0
-33.9845 -2.11206 0.0
-33.2244 -2.6248 0.0
-28.2343 -2.92328 0.0
-27.8358 -1.91164 0.0
-28.8151 0.541165 0.0
-5.41775 3.7764 0.0
-5.92539 0.522962 0.0
-0.900012 -3.16383 0.0
-0.629023 -2.99148 0.0
0.158794 -0.519166 0.0
-2.01193 3.31608 0.0
-3.40346 4.17801 0.0
24.1023 14.6271 0.0
22.0725 12.8446 0.0
23.5472 3.24499 0.0
25.09 3.3338 0.0
24.5409 13.3698 0.0
24.4391 14.5334 0.0
-19.5339 51.6391 0.0
-18.1901 51.1067 0.0
-10.2113 56.4346 0.0
-11.151 58.4203 0.0
-13.6925 58.6194 0.0
-14.4925 58.508 0.0
-20.892 -44.6902 0.0
-19.924 -44.4445 0.0
-16.5355 -39.5633 0.0
-19.1786 -37.4061 0.0
-23.6065 -39.8056 0.0
36.7519 43.0384 0.0
37.6084 42.201 0.0
39.7109 41.5407 0.0
43.8214 40.1851 0.0
45.3646 41.2657 0.0
45.1721 41.6858 0.0
40.559 45.3635 0.0
-21.4612 35.2798 0.0
-21.3563 33.2376 0.0
-20.1915 32.7598 0.0
-17.3973 31.9493 0.0
-16.0971 33.0405 0.0
-16.3651 36.0715 0.0
38.2994 -3.01262 0.0
39.469 -3.98193 0.0
46.458 -1.50369 0.0
46.9542 2.3949 0.0
47.017 2.89018 0.0
42.6009 0.908261 0.0
-38.5974 -11.5867 0.0
-44.5332 -11.7221 0.0
-44.6605 -13.1288 0.0
-40.1857 -15.3164 0.0
-38.7595 -15.581 0.0
-8.30098 56.0009 0.0
-5.21422 57.0123 0.0
-5.74807 61.9388 0.0
-10.4327 58.7454 0.0
-9.49299 56.7597 0.0
-30.4461 36.7574 0.0
-30.4381 35.6887 0.0
-27.9396 27.6241 0.0
-26.3861 27.5628 0.0
-24.4416 31.3736 0.0
-27.0153 33.7987 0.0
0.577225 52.0422 0.0
-0.0784638 51.8093 0.0
0.696671 46.8707 0.0
4.32799 46.0834 0.0
4.47354 49.7274 0.0
1.90152 57.998 0.0
6.67495 55.5554 0.0
11.2242 54.4113 0.0
9.12962 59.2703 0.0
5.19218 60.2716 0.0
1.82439 58.6985 0.0
1.77139 58.2002 0.0
42.7609 1.50819 0.0
47.177 3.49011 0.0
48.1935 5.16968 0.0
47.8458 7.08914 0.0
44.7031 8.20307 0.0
41.9052 7.02537 0.0
-45.9791 -21.296 0.0
[...]
<CellData Scalars="cell variable 4" Vectors="cell vector">
<DataArray type="Float64" NumberOfComponents="3" Name="cell vector" format="ascii">
0 0 0
0 0 0
0 0 0
0 0 0
0 0 0
0 0 0
0 0 0
0 0 0
0 0 0
0 0 0
0 0 0
0 0 0
0 0 0
0 0 0
0 0 0
0 0 0
0 0 0
0 0 0
0 0 0
0 0 0
0 0 0
0 0 0
0 0 0
0 0 0
0 0 0
0 0 0
0 0 0
0 0 0
0 0 0
0 0 0
0 0 0
0 0 0
0 0 0
0 0 0
0 0 0
0 0 0
0 0 0
0 0 0
0 0 0
0 0 0
0 0 0
0 0 0
0 0 0
0 0 0
0 0 0
0 0 0
0 0 0
0 0 0
0 0 0
0 0 0
0 0 0
0 0 0
0 0 0
0 0 0
0 0 0
0 0 0
0 0 0
0 0 0
0 0 0
0 0 0
0 0 0
0 0 0
0 0 0
0 0 0
0 0 0
0 0 0
0 0 0
0 0 0
0 0 0
0 0 0
0 0 0
0 0 0
0 0 0
0 0 0
0 0 0
0 0 0
0 0 0
0 0 0
0 0 0
0 0 0
0 0 0
0 0 0
0 0 0
0 0 0
0 0 0
0 0 0
0 0 0
0 0 0
0 0 0
0 0 0
0 0 0
0 0 0
0 0 0
0 0 0
0 0 0
0 0 0
0 0 0
0 0 0
0 0 0
0 0 0
0 0 0
0 0 0
0 0 0
0 0 0
0 0 0
0 0 0
0 0 0
0 0 0
0 0 0
0 0 0
0 0 0
0 0 0
0 0 0
0 0 0
0 0 0
0 0 0
0 0 0
0 0 0
0 0 0
0 0 0
0 0 0
0 0 0
0 0 0
0 0 0
0 0 0
0 0 0
0 0 0
0 0 0
0 0 0
0 0 0
0 0 0
0 0 0
0 0 0
0 0 0
0 0 0
0 0 0
0 0 0
0 0 0
0 0 0
0 0 0
0 0 0
0 0 0
0 0 0
0 0 0
0 0 0
0 0 0
0 0 0
0 0 0
0 0 0
0 0 0
0 0 0
0 0 0
0 0 0
0 0 0
0 0 0
0 0 0
0 0 0
0 0 0
0 0 0
0 0 0
0 0 0
0 0 0
0 0 0
0 0 0
0 0 0
0 0 0
0 0 0
0 0 0
0 0 0
0 0 0
0 0 0
0 0 0
0 0 0
0 0 0
0 0 0
0 0 0
0 0 0
0 0 0
0 0 0
0 0 0
0 0 0
0 0 0
0 0 0
0 0 0
0 0 0
0 0 0
0 0 0
0 0 0
0 0 0
0 0 0
0 0 0
0 0 0
0 0 0
0 0 0
0 0 0
0 0 0
0 0 0
0 0 0
0 0 0
0 0 0
0 0 0
0 0 0
0 0 0
0 0 0
0 0 0
0 0 0
0 0 0
0 0 0
0 0 0
0 0 0
0 0 0
0 0 0
0 0 0
0 0 0
0 0 0
0 0 0
0 0 0
0 0 0
0 0 0
0 0 0
0 0 0
0 0 0
0 0 0
0 0 0
0 0 0
0 0 0
0 0 0
0 0 0
0 0 0
0 0 0
0 0 0
0 0 0
0 0 0
0 0 0
0 0 0
0 0 0
0 0 0
0 0 0
0 0 0
0 0 0
0 0 0
0 0 0
0 0 0
0 0 0
0 0 0
0 0 0
0 0 0
0 0 0
0 0 0
0 0 0
0 0 0
0 0 0
0 0 0
0 0 0
0 0 0
0 0 0
0 0 0
0 0 0
0 0 0
0 0 0
0 0 0
0 0 0
0 0 0
0 0 0
0 0 0
0 0 0
0 0 0
0 0 0
0 0 0
0 0 0
0 0 0
0 0 0
0 0 0
0 0 0
0 0 0
0 0 0
0 0 0
0 0 0
0 0 0
0 0 0
0 0 0
0 0 0
0 0 0
0 0 0
0 0 0
0 0 0
0 0 0
0 0 0
0 0 0
0 0 0
0 0 0
0 0 0
0 0 0
0 0 0
0 0 0
0 0 0
0 0 0
0 0 0
0 0 0
0 0 0
0 0 0
0 0 0
0 0 0
0 0 0
0 0 0
0 0 0
0 0 0
0 0 0
0 0 0
0 0 0
0 0 0
0 0 0
0 0 0
0 0 0
0 0 0
0 0 0
0 0 0
0 0 0
0 0 0
0 0 0
0 0 0
0 0 0
0 0 0
0 0 0
0 0 0
0 0 0
0 0 0
0 0 0
0 0 0
0 0 0
0 0 0
0 0 0
0 0 0
0 0 0
0 0 0
0 0 0
0 0 0
0 0 0
0 0 0
0 0 0
0 0 0
0 0 0
0 0 0
0 0 0
0 0 0
0 0 0
0 0 0
0 0 0
0 0 0
0 0 0
0 0 0
0 0 0
0 0 0
0 0 0
0 0 0
0 0 0
0 0 0
0 0 0
0 0 0
0 0 0
0 0 0
0 0 0
0 0 0
0 0 0
0 0 0
0 0 0
0 0 0
0 0 0
0 0 0
0 0 0
0 0 0
0 0 0
0 0 0
0 0 0
0 0 0
0 0 0
0 0 0
0 0 0
0 0 0
0 0 0
0 0 0
0 0 0
0 0 0
0 0 0
0 0 0
0 0 0
0 0 0
0 0 0
0 0 0
0 0 0
0 0 0
0 0 0
0 0 0
0 0 0
0 0 0
0 0 0
0 0 0
0 0 0
0 0 0
0 0 0
0 0 0
0 0 0
0 0 0
0 0 0
0 0 0
0 0 0
0 0 0
0 0 0
0 0 0
0 0 0
0 0 0
0 0 0
0 0 0
0 0 0
0 0 0
0 0 0
0 0 0
0 0 0
0 0 0
0 0 0
</DataArray>
<DataArray type="Float64" Name="cell vector length" format="ascii">
0 0 0 0 0 0 0 0 0 0 0 0 0 0 0 0 0 0 0 0 0 0 0 0 0 0 0 0 0 0 0 0 0 0 0 0 0 0 0 0 0 0 0 0 0 0 0 0 0 0 0 0 0 0 0 0 0 0 0 0 0 0 0 0 0 0 0 0 0 0 0 0 0 0 0 0 0 0 0 0 0 0 0 0 0 0 0 0 0 0 0 0 0 0 0 0 0 0 0 0 0 0 0 0 0 0 0 0 0 0 0 0 0 0 0 0 0 0 0 0 0 0 0 0 0 0 0 0 0 0 0 0 0 0 0 0 0 0 0 0 0 0 0 0 0 0 0 0 0 0 0 0 0 0 0 0 0 0 0 0 0 0 0 0 0 0 0 0 0 0 0 0 0 0 0 0 0 0 0 0 0 0 0 0 0 0 0 0 0 0 0 0 0 0 0 0 0 0 0 0 0 0 0 0 0 0 0 0 0 0 0 0 0 0 0 0 0 0 0 0 0 0 0 0 0 0 0 0 0 0 0 0 0 0 0 0 0 0 0 0 0 0 0 0 0 0 0 0 0 0 0 0 0 0 0 0 0 0 0 0 0 0 0 0 0 0 0 0 0 0 0 0 0 0 0 0 0 0 0 0 0 0 0 0 0 0 0 0 0 0 0 0 0 0 0 0 0 0 0 0 0 0 0 0 0 0 0 0 0 0 0 0 0 0 0 0 0 0 0 0 0 0 0 0 0 0 0 0 0 0 0 0 0 0 0 0 0 0 0 0 0 0 0 0 0 0 0 0 0 0 0 0 0 0 0 0 0 0 0 0 0 0 0 0 0 0 0 0 0 0 0 0 0 0 0 0 0 0 0 0 0 0 0 0 0 0 0 0 0 0 0 0 0 0 0 0 0 0 0 0 0 0 0 0 0 0 0 0 0 0 0 0 0 0 0 0 0 0 0 0 
</DataArray>
<DataArray type="Float64" Name="cell variable 4" format="ascii">
0.316217 0.434405 0.657465 1.07467 0.249242 0.94865 0.542818 0.94865 0.371127 0.399988 0.23011 0.479217 0.23011 1.04461 0.573608 0.66381 0.334198 0.495708 0.573608 0.161465 0.27464 0.99432 0.511974 0.511974 0.118662 0.495708 0.393381 0.179448 0.0824302 0.163146 0.332003 0.626025 0.980966 0.626025 0.437452 0.118662 0.36504 0.184973 0.673042 0.313432 0.252014 0.179448 0.187543 0.179448 0.626025 1.10185 1.11547 0.434405 0.514292 0.657465 0.848855 0.23011 0.442722 0.33356 0.673042 0.179448 1.06245 0.736473 1.11547 0.912892 0.573608 0.136507 0.187543 1.07467 0.736473 0.542818 1.12037 0.848855 0.130161 0.393247 0.00370628 0.503886 0.45141 0.542818 0.0976075 0.371127 0.36504 0.0505895 0.45141 0.23011 0.442722 0.708918 0.495708 0.790107 0.118662 0.399988 1.04461 1.10185 1.14226 0.371127 0.184973 0.708918 0.36504 0.334198 0.980966 0.0978407 0.118662 0.919422 0.503886 0.163146 0.503886 1.04461 0.249242 0.313432 0.631062 0.919422 0.479217 0.23011 0.434405 0.912892 0.542818 0.790107 0.0773391 0.673042 0.184059 0.334198 0.542818 0.657465 1.11547 0.789941 0.393247 0.153908 0.399988 0.343308 0.393381 0.673042 0.179448 0.573608 0.99432 0.514292 0.514292 0.153908 0.789941 0.393381 0.66381 0.136507 0.50937 0.0773391 1.04461 0.789941 0.184973 1.00681 1.12037 0.393247 0.187543 0.980966 0.66381 0.99432 0.32239 0.848855 0.0773391 0.980966 0.313432 0.919422 1.00681 0.161465 0.23011 0.790107 0.542818 0.23011 0.0097703 0.94865 0.848855 0.136507 0.187543 0.763876 0.657465 0.0505895 0.184973 0.36504 0.27464 0.184973 0.573608 0.371127 0.163146 0.313432 1.00681 1.00681 0.343308 0.187543 1.12037 0.179448 1.00681 0.657465 0.442722 0.437452 0.657465 1.11547 0.313432 0.136507 0.23011 0.0646441 1.07467 0.399988 0.50937 0.789941 0.94865 0.0773391 0.8063 0.0773391 0.790107 0.393247 0.161465 0.657465 0.631062 0.50937 0.45141 0.708918 0.763876 0.442722 0.514292 0.673042 0.631062 0.495708 0.249242 0.153908 0.316217 0.136507 0.184973 1.07467 0.252014 0.316217 0.434405 0.0824302 0.343308 0.8063 0.511974 0.332003 0.0978407 0.763876 0.136507 0.90618 0.27464 0.187543 1.04461 0.0646441 1.10185 0.479217 0.0976075 0.631062 0.184059 0.23011 0.343308 0.32239 0.32239 0.399988 0.90618 0.736473 0.153908 0.0505895 1.10185 0.393247 0.626025 0.36504 0.316217 0.763876 1.10185 0.27464 0.442722 0.437452 0.32239 0.514292 0.184059 0.45141 0.36504 0.27464 0.0978407 0.912892 0.437452 0.919422 1.11547 0.789941 0.136507 0.542818 0.503886 0.163146 0.136507 0.631062 0.184973 0.0505895 0.187543 0.736473 0.00370628 0.912892 0.00103121 0.631062 0.00760007 0.343308 0.50937 1.00681 0.343308 0.23011 0.94865 0.0978407 0.332003 0.00760007 0.0646441 0.184973 0.66381 0.673042 0.912892 0.790107 0.153908 0.179448 0.0646441 0.118662 0.33356 0.313432 0.161465 0.90618 0.631062 0.542818 1.12037 1.07467 0.912892 0.399988 0.130161 1.11547 0.980966 0.8063 0.0824302 0.32239 0.161465 0.399988 0.332003 0.316217 0.542818 1.14226 0.573608 0.33356 0.163146 0.66381 0.708918 0.252014 0.626025 0.479217 0.90618 0.495708 0.36504 0.118662 0.542818 0.249242 0.130161 0.393381 0.99432 1.06245 0.187543 0.848855 0.33356 0.434405 0.657465 0.573608 0.919422 0.442722 0.399988 0.252014 0.514292 0.8063 0.495708 1.14226 0.32239 0.343308 0.313432 0.919422 0.919422 0.763876 0.848855 0.313432 0.789941 1.11547 0.980966 0.442722 0.434405 1.10185 0.23011 0.790107 0.136507 0.184059 0.673042 0.626025 0.66381 0.511974 1.06245 0.514292 0.0976075 0.343308 0.252014 0.249242 1.14226 0.631062 0.626025 1.04461 0.179448 0.371127 0.334198 0.919422 0.66381 0.511974 1.06245 0.161465 0.0976075 0.252014 0.789941 0.442722 0.673042 0.371127 0.27464 0.848855 0.542818 0.252014 0.573608 0.249242 0.763876 1.00681 0.912892 1.06245 0.153908 0.153908 0.511974 0.249242 
</DataArray>
<DataArray type="Float64" Name="cell variable 5" format="ascii">
0.0909148 0.0503251 0.0226112 0.00858434 0.138655 0.0109898 0.0328244 0.0109898 0.0676886 0.0588268 0.158855 0.0417277 0.158855 0.00908091 0.0294962 0.0221905 0.082177 0.0391044 0.0294962 0.277231 0.117059 0.0100133 0.0367488 0.0367488 0.415271 0.0391044 0.0606986 0.236958 0.595425 0.273099 0.0831765 0.0248813 0.0102849 0.0248813 0.0496613 0.415271 0.0698059 0.226167 0.021599 0.0923878 0.136034 0.236958 0.221374 0.236958 0.0248813 0.00816951 0.00797274 0.0503251 0.0364304 0.0226112 0.0136882 0.158855 0.0485429 0.0824658 0.021599 0.236958 0.00878122 0.0181031 0.00797274 0.0118572 0.0294962 0.349234 0.221374 0.00858434 0.0181031 0.0328244 0.00790366 0.0136882 0.371169 0.0607373 0.998628 0.037893 0.0467791 0.0328244 0.512105 0.0676886 0.0698059 0.796223 0.0467791 0.158855 0.0485429 0.0195097 0.0391044 0.0157662 0.415271 0.0588268 0.00908091 0.00816951 0.00760594 0.0676886 0.226167 0.0195097 0.0698059 0.082177 0.0102849 0.510913 0.415271 0.0116913 0.037893 0.273099 0.037893 0.00908091 0.138655 0.0923878 0.0244954 0.0116913 0.0417277 0.158855 0.0503251 0.0118572 0.0328244 0.0157662 0.62573 0.021599 0.227907 0.082177 0.0328244 0.0226112 0.00797274 0.0157727 0.0607373 0.296844 0.0588268 0.0782104 0.0606986 0.021599 0.236958 0.0294962 0.0100133 0.0364304 0.0364304 0.296844 0.0157727 0.0606986 0.0221905 0.349234 0.0371116 0.62573 0.00908091 0.0157727 0.226167 0.00976872 0.00790366 0.0607373 0.221374 0.0102849 0.0221905 0.0100133 0.0877689 0.0136882 0.62573 0.0102849 0.0923878 0.0116913 0.00976872 0.277231 0.158855 0.0157662 0.0328244 0.158855 0.990544 0.0109898 0.0136882 0.349234 0.221374 0.016849 0.0226112 0.796223 0.226167 0.0698059 0.117059 0.226167 0.0294962 0.0676886 0.273099 0.0923878 0.00976872 0.00976872 0.0782104 0.221374 0.00790366 0.236958 0.00976872 0.0226112 0.0485429 0.0496613 0.0226112 0.00797274 0.0923878 0.349234 0.158855 0.705275 0.00858434 0.0588268 0.0371116 0.0157727 0.0109898 0.62573 0.0151488 0.62573 0.0157662 0.0607373 0.277231 0.0226112 0.0244954 0.0371116 0.0467791 0.0195097 0.016849 0.0485429 0.0364304 0.021599 0.0244954 0.0391044 0.138655 0.296844 0.0909148 0.349234 0.226167 0.00858434 0.136034 0.0909148 0.0503251 0.595425 0.0782104 0.0151488 0.0367488 0.0831765 0.510913 0.016849 0.349234 0.0120314 0.117059 0.221374 0.00908091 0.705275 0.00816951 0.0417277 0.512105 0.0244954 0.227907 0.158855 0.0782104 0.0877689 0.0877689 0.0588268 0.0120314 0.0181031 0.296844 0.796223 0.00816951 0.0607373 0.0248813 0.0698059 0.0909148 0.016849 0.00816951 0.117059 0.0485429 0.0496613 0.0877689 0.0364304 0.227907 0.0467791 0.0698059 0.117059 0.510913 0.0118572 0.0496613 0.0116913 0.00797274 0.0157727 0.349234 0.0328244 0.037893 0.273099 0.349234 0.0244954 0.226167 0.796223 0.221374 0.0181031 0.998628 0.0118572 0.999894 0.0244954 0.994257 0.0782104 0.0371116 0.00976872 0.0782104 0.158855 0.0109898 0.510913 0.0831765 0.994257 0.705275 0.226167 0.0221905 0.021599 0.0118572 0.0157662 0.296844 0.236958 0.705275 0.415271 0.0824658 0.0923878 0.277231 0.0120314 0.0244954 0.0328244 0.00790366 0.00858434 0.0118572 0.0588268 0.371169 0.00797274 0.0102849 0.0151488 0.595425 0.0877689 0.277231 0.0588268 0.0831765 0.0909148 0.0328244 0.00760594 0.0294962 0.0824658 0.273099 0.0221905 0.0195097 0.136034 0.0248813 0.0417277 0.0120314 0.0391044 0.0698059 0.415271 0.0328244 0.138655 0.371169 0.0606986 0.0100133 0.00878122 0.221374 0.0136882 0.0824658 0.0503251 0.0226112 0.0294962 0.0116913 0.0485429 0.0588268 0.136034 0.0364304 0.0151488 0.0391044 0.00760594 0.0877689 0.0782104 0.0923878 0.0116913 0.0116913 0.016849 0.0136882 0.0923878 0.0157727 0.00797274 0.0102849 0.0485429 0.0503251 0.00816951 0.158855 0.0157662 0.349234 0.227907 0.021599 0.0248813 0.0221905 0.0367488 0.00878122 0.0364304 0.512105 0.0782104 0.136034 0.138655 0.00760594 0.0244954 0.0248813 0.00908091 0.236958 0.0676886 0.082177 0.0116913 0.0221905 0.0367488 0.00878122 0.277231 0.512105 0.136034 0.0157727 0.0485429 0.021599 0.0676886 0.117059 0.0136882 0.0328244 0.136034 0.0294962 0.138655 0.016849 0.00976872 0.0118572 0.00878122 0.296844 0.296844 0.0367488 0.138655 
</DataArray>
<DataArray type="Float64" Name="cell variable 6" format="ascii">
0.0038835 0.000857904 8.84138e-05 5.3719e-06 0.0566856 1.10661e-05 0.000251962 1.10661e-05 0.0019189 0.00127682 0.0671729 0.00051123 0.0671729 6.33494e-06 0.000187165 8.3838e-05 0.00576492 0.000410215 0.000187165 0.298329 0.02163 8.43313e-06 0.00035504 0.00035504 0.533485 0.000410215 0.00151522 0.235078 0.752638 0.294057 0.00364689 0.000115922 9.11938e-06 0.000115922 0.000885689 0.533485 0.0019794 0.208208 7.76673e-05 0.00439847 0.0441278 0.235078 0.185318 0.235078 0.000115922 4.64493e-06 4.32387e-06 0.000857904 0.000349016 8.84138e-05 2.09522e-05 0.0671729 0.000858618 0.00403961 7.76673e-05 0.235078 5.74138e-06 4.69278e-05 4.32387e-06 1.38076e-05 0.000187165 0.432355 0.185318 5.3719e-06 4.69278e-05 0.000251962 4.21468e-06 2.09522e-05 0.477444 0.00202135 1.00642 0.000380196 0.000696942 0.000251962 0.67289 0.0019189 0.0019794 0.900072 0.000696942 0.0671729 0.000858618 5.81379e-05 0.000410215 3.15261e-05 0.533485 0.00127682 6.33494e-06 4.64493e-06 3.76475e-06 0.0019189 0.208208 5.81379e-05 0.0019794 0.00576492 9.11938e-06 0.674122 0.533485 1.32528e-05 0.000380196 0.294057 0.000380196 6.33494e-06 0.0566856 0.00439847 0.000110922 1.32528e-05 0.00051123 0.0671729 0.000857904 1.38076e-05 0.000251962 3.15261e-05 0.780596 7.76673e-05 0.235443 0.00576492 0.000251962 8.84138e-05 4.32387e-06 3.156e-05 0.00202135 0.3398 0.00127682 0.00310284 0.00151522 7.76673e-05 0.235078 0.000187165 8.43313e-06 0.000349016 0.000349016 0.3398 3.156e-05 0.00151522 8.3838e-05 0.432355 0.000394946 0.780596 6.33494e-06 3.156e-05 0.208208 7.8448e-06 4.21468e-06 0.00202135 0.185318 9.11938e-06 8.3838e-05 8.43313e-06 0.00628005 2.09522e-05 0.780596 9.11938e-06 0.00439847 1.32528e-05 7.8448e-06 0.298329 0.0671729 3.15261e-05 0.000251962 0.0671729 1.00014 1.10661e-05 2.09522e-05 0.432355 0.185318 3.81646e-05 8.84138e-05 0.900072 0.208208 0.0019794 0.02163 0.208208 0.000187165 0.0019189 0.294057 0.00439847 7.8448e-06 7.8448e-06 0.00310284 0.185318 4.21468e-06 0.235078 7.8448e-06 8.84138e-05 0.000858618 0.000885689 8.84138e-05 4.32387e-06 0.00439847 0.432355 0.0671729 0.841792 5.3719e-06 0.00127682 0.000394946 3.156e-05 1.10661e-05 0.780596 2.80904e-05 0.780596 3.15261e-05 0.00202135 0.298329 8.84138e-05 0.000110922 0.000394946 0.000696942 5.81379e-05 3.81646e-05 0.000858618 0.000349016 7.76673e-05 0.000110922 0.000410215 0.0566856 0.3398 0.0038835 0.432355 0.208208 5.3719e-06 0.0441278 0.0038835 0.000857904 0.752638 0.00310284 2.80904e-05 0.00035504 0.00364689 0.674122 3.81646e-05 0.432355 1.4406e-05 0.02163 0.185318 6.33494e-06 0.841792 4.64493e-06 0.00051123 0.67289 0.000110922 0.235443 0.0671729 0.00310284 0.00628005 0.00628005 0.00127682 1.4406e-05 4.69278e-05 0.3398 0.900072 4.64493e-06 0.00202135 0.000115922 0.0019794 0.0038835 3.81646e-05 4.64493e-06 0.02163 0.000858618 0.000885689 0.00628005 0.000349016 0.235443 0.000696942 0.0019794 0.02163 0.674122 1.38076e-05 0.000885689 1.32528e-05 4.32387e-06 3.156e-05 0.432355 0.000251962 0.000380196 0.294057 0.432355 0.000110922 0.208208 0.900072 0.185318 4.69278e-05 1.00642 1.38076e-05 1.00849 0.000110922 1.00277 0.00310284 0.000394946 7.8448e-06 0.00310284 0.0671729 1.10661e-05 0.674122 0.00364689 1.00277 0.841792 0.208208 8.3838e-05 7.76673e-05 1.38076e-05 3.15261e-05 0.3398 0.235078 0.841792 0.533485 0.00403961 0.00439847 0.298329 1.4406e-05 0.000110922 0.000251962 4.21468e-06 5.3719e-06 1.38076e-05 0.00127682 0.477444 4.32387e-06 9.11938e-06 2.80904e-05 0.752638 0.00628005 0.298329 0.00127682 0.00364689 0.0038835 0.000251962 3.76475e-06 0.000187165 0.00403961 0.294057 8.3838e-05 5.81379e-05 0.0441278 0.000115922 0.00051123 1.4406e-05 0.000410215 0.0019794 0.533485 0.000251962 0.0566856 0.477444 0.00151522 8.43313e-06 5.74138e-06 0.185318 2.09522e-05 0.00403961 0.000857904 8.84138e-05 0.000187165 1.32528e-05 0.000858618 0.00127682 0.0441278 0.000349016 2.80904e-05 0.000410215 3.76475e-06 0.00628005 0.00310284 0.00439847 1.32528e-05 1.32528e-05 3.81646e-05 2.09522e-05 0.00439847 3.156e-05 4.32387e-06 9.11938e-06 0.000858618 0.000857904 4.64493e-06 0.0671729 3.15261e-05 0.432355 0.235443 7.76673e-05 0.000115922 8.3838e-05 0.00035504 5.74138e-06 0.000349016 0.67289 0.00310284 0.0441278 0.0566856 3.76475e-06 0.000110922 0.000115922 6.33494e-06 0.235078 0.0019189 0.00576492 1.32528e-05 8.3838e-05 0.00035504 5.74138e-06 0.298329 0.67289 0.0441278 3.156e-05 0.000858618 7.76673e-05 0.0019189 0.02163 2.09522e-05 0.000251962 0.0441278 0.000187165 0.0566856 3.81646e-05 7.8448e-06 1.38076e-05 5.74138e-06 0.3398 0.3398 0.00035504 0.0566856 
</DataArray>
<DataArray type="Float64" Name="cell variable 7" format="ascii">
0.357275 0.264653 0.176526 0.0863829 0.413855 0.109939 0.214434 0.109939 0.306453 0.285858 0.46057 0.24144 0.46057 0.091923 0.203114 0.174715 0.334908 0.233945 0.203114 0.543895 0.399197 0.10127 0.2268 0.2268 0.633332 0.233945 0.290041 0.481302 0.652741 0.531783 0.340125 0.185875 0.103782 0.185875 0.262734 0.633332 0.311423 0.488241 0.172124 0.360012 0.422896 0.481302 0.511928 0.481302 0.185875 0.0813708 0.0788486 0.264653 0.225806 0.176526 0.129973 0.46057 0.259721 0.337987 0.172124 0.481302 0.0886341 0.15552 0.0788486 0.116913 0.203114 0.58017 0.511928 0.0863829 0.15552 0.214434 0.0779382 0.129973 0.557964 0.288948 0.736426 0.230311 0.255368 0.214434 0.58928 0.306453 0.311423 0.667622 0.255368 0.46057 0.259721 0.162493 0.233945 0.142821 0.633332 0.285858 0.091923 0.0813708 0.0738515 0.306453 0.488241 0.162493 0.311423 0.334908 0.103782 0.570965 0.633332 0.115625 0.230311 0.531783 0.230311 0.091923 0.413855 0.360012 0.184332 0.115625 0.24144 0.46057 0.264653 0.116913 0.214434 0.142821 0.646851 0.172124 0.426674 0.334908 0.214434 0.176526 0.0788486 0.142859 0.288948 0.544906 0.285858 0.329428 0.290041 0.172124 0.481302 0.203114 0.10127 0.225806 0.225806 0.544906 0.142859 0.290041 0.174715 0.58017 0.227704 0.646851 0.091923 0.142859 0.488241 0.0989326 0.0779382 0.288948 0.511928 0.103782 0.174715 0.10127 0.347352 0.129973 0.646851 0.103782 0.360012 0.115625 0.0989326 0.543895 0.46057 0.142821 0.214434 0.46057 0.724735 0.109939 0.129973 0.58017 0.511928 0.148901 0.176526 0.667622 0.488241 0.311423 0.399197 0.488241 0.203114 0.306453 0.531783 0.360012 0.0989326 0.0989326 0.329428 0.511928 0.0779382 0.481302 0.0989326 0.176526 0.259721 0.262734 0.176526 0.0788486 0.360012 0.58017 0.46057 0.663687 0.0863829 0.285858 0.227704 0.142859 0.109939 0.646851 0.139181 0.646851 0.142821 0.288948 0.543895 0.176526 0.184332 0.227704 0.255368 0.162493 0.148901 0.259721 0.225806 0.172124 0.184332 0.233945 0.413855 0.544906 0.357275 0.58017 0.488241 0.0863829 0.422896 0.357275 0.264653 0.652741 0.329428 0.139181 0.2268 0.340125 0.570965 0.148901 0.58017 0.118245 0.399197 0.511928 0.091923 0.663687 0.0813708 0.24144 0.58928 0.184332 0.426674 0.46057 0.329428 0.347352 0.347352 0.285858 0.118245 0.15552 0.544906 0.667622 0.0813708 0.288948 0.185875 0.311423 0.357275 0.148901 0.0813708 0.399197 0.259721 0.262734 0.347352 0.225806 0.426674 0.255368 0.311423 0.399197 0.570965 0.116913 0.262734 0.115625 0.0788486 0.142859 0.58017 0.214434 0.230311 0.531783 0.58017 0.184332 0.488241 0.667622 0.511928 0.15552 0.736426 0.116913 0.74517 0.184332 0.695937 0.329428 0.227704 0.0989326 0.329428 0.46057 0.109939 0.570965 0.340125 0.695937 0.663687 0.488241 0.174715 0.172124 0.116913 0.142821 0.544906 0.481302 0.663687 0.633332 0.337987 0.360012 0.543895 0.118245 0.184332 0.214434 0.0779382 0.0863829 0.116913 0.285858 0.557964 0.0788486 0.103782 0.139181 0.652741 0.347352 0.543895 0.285858 0.340125 0.357275 0.214434 0.0738515 0.203114 0.337987 0.531783 0.174715 0.162493 0.422896 0.185875 0.24144 0.118245 0.233945 0.311423 0.633332 0.214434 0.413855 0.557964 0.290041 0.10127 0.0886341 0.511928 0.129973 0.337987 0.264653 0.176526 0.203114 0.115625 0.259721 0.285858 0.422896 0.225806 0.139181 0.233945 0.0738515 0.347352 0.329428 0.360012 0.115625 0.115625 0.148901 0.129973 0.360012 0.142859 0.0788486 0.103782 0.259721 0.264653 0.0813708 0.46057 0.142821 0.58017 0.426674 0.172124 0.185875 0.174715 0.2268 0.0886341 0.225806 0.58928 0.329428 0.422896 0.413855 0.0738515 0.184332 0.185875 0.091923 0.481302 0.306453 0.334908 0.115625 0.174715 0.2268 0.0886341 0.543895 0.58928 0.422896 0.142859 0.259721 0.172124 0.306453 0.399197 0.129973 0.214434 0.422896 0.203114 0.413855 0.148901 0.0989326 0.116913 0.0886341 0.544906 0.544906 0.2268 0.413855 