<VTKFile type="UnstructuredGrid" version="0.1">
<UnstructuredGrid>
<Piece  NumberOfPoints="    2172" NumberOfCells="    1599">
<Points>
<DataArray type="Float64" NumberOfComponents="3" format="ascii">
-28.0014 -21.8481 0 
4.4048 5.10563 0 
22.6523 -2.9132 0 
0.644198 -28.6191 0 
-12.1571 22.0219 0 
-30.396 12.1135 0 
2.58088 42.5821 0 
-11.0261 48.7871 0 
-23.2358 29.5196 0 
34.8584 -12.2579 0 
-28.7432 5.75822 0 
20.1776 -10.5967 0 
-5.51467 18.0851 0 
2.96177 -28.6056 0 
30.8539 11.4522 0 
-48.2032 9.31246 0 
-1.65911 -39.9366 0 
37.702 4.3315 0 
-14.5875 -44.2111 0 
13.5868 -9.59677 0 
24.6009 35.4086 0 
19.7907 23.0889 0 
-23.5546 -19.7497 0 
2.16841 1.11467 0 
-16.8753 32.725 0 
25.5091 -4.42057 0 
5.1714 -46.0093 0 
-12.9107 -25.0597 0 
-25.3797 6.83227 0 
-29.6442 -5.92897 0 
33.3973 29.1249 0 
-39.4771 27.4776 0 
-22.1505 36.792 0 
-15.4586 28.3593 0 
-6.02388 40.3606 0 
-8.61991 39.8494 0 
-7.23276 16.4928 0 
-4.26033 23.1952 0 
36.2518 -29.6306 0 
-44.2773 7.1354 0 
24.5333 32.6069 0 
-9.8207 -36.959 0 
17.7423 -28.1499 0 
-19.4667 30.782 0 
-43.3767 -0.797692 0 
30.3644 -9.93463 0 
-5.87759 -0.780424 0 
-12.6531 15.3741 0 
-27.5733 39.3998 0 
27.6369 34.0128 0 
-41.1078 -19.1916 0 
11.6411 34.2984 0 
-11.2086 -4.60786 0 
19.3442 -36.3744 0 
-11.5535 -11.6148 0 
-19.7457 2.92767 0 
-4.07712 -23.6642 0 
-34.6615 26.5403 0 
46.0291 -4.86311 0 
8.11667 24.3055 0 
1.46057 -45.0241 0 
-7.37726 -42.3683 0 
23.5097 -22.6328 0 
42.2999 9.96393 0 
-27.818 14.9659 0 
4.12322 25.7076 0 
41.6117 16.3831 0 
-30.1795 -12.8285 0 
40.2321 -22.6645 0 
5.89812 39.2799 0 
7.34044 -2.21692 0 
-25.0014 -18.3893 0 
32.9975 -33.02 0 
-41.7339 18.5702 0 
45.9399 -7.0327 0 
-21.6722 -8.57011 0 
43.4224 -15.6791 0 
45.791 -2.00026 0 
11.7609 -20.9007 0 
0.0888898 35.1955 0 
-4.29667 45.0036 0 
15.1805 -17.6383 0 
-6.11993 -4.59611 0 
22.063 31.1457 0 
25.2705 12.973 0 
38.9658 -4.41128 0 
14.3923 43.3151 0 
-0.363524 26.5225 0 
17.951 37.0623 0 
-19.321 27.348 0 
30.5478 31.0372 0 
-13.8459 -13.4975 0 
11.8366 15.3393 0 
-31.5012 -16.9097 0 
-44.3805 -8.47771 0 
17.8428 -33.0916 0 
13.8591 -0.935594 0 
43.6648 -11.2455 0 
-15.1404 45.1037 0 
6.12268 -17.1293 0 
-11.4604 -37.5119 0 
-24.2203 10.1982 0 
23.4473 6.72448 0 
-30.6246 2.78288 0 
29.5764 -9.54862 0 
21.204 40.7421 0 
-29.175 -2.48972 0 
44.9781 6.42608 0 
-36.2175 15.3028 0 
-37.2115 -25.1523 0 
37.0918 9.97308 0 
-8.49576 6.09169 0 
-10.0618 -45.2268 0 
-42.9489 4.00503 0 
-10.2134 43.5511 0 
35.7841 2.87911 0 
-18.6044 -41.9316 0 
17.8997 -40.4722 0 
23.2911 -25.8448 0 
19.1026 -2.42385 0 
14.9424 38.5249 0 
-12.2601 38.4527 0 
-2.37687 39.6922 0 
19.489 33.0508 0 
-15.2719 38.062 0 
-19.6311 22.631 0 
4.85444 -40.2355 0 
21.4478 -19.729 0 
14.8872 26.6569 0 
39.3096 -0.137394 0 
4.26774 34.1044 0 
-10.7384 -1.53323 0 
-21.0881 -16.3746 0 
-6.17271 -8.20381 0 
32.4597 19.2909 0 
38.6638 -27.7223 0 
16.4005 -2.05049 0 
39.1669 18.9176 0 
35.4783 26.3731 0 
-14.0156 -38.2826 0 
-37.8358 -15.9609 0 
10.4897 34.7665 0 
6.1481 -45.8418 0 
-2.46238 7.22126 0 
24.0116 21.8701 0 
1.73893 15.3243 0 
-18.301 -36.8507 0 
37.7284 21.7265 0 
19.92 10.448 0 
5.98964 20.3754 0 
-31.8822 11.1139 0 
-31.3336 28.3167 0 
30.2936 15.8054 0 
22.3789 -31.3962 0 
0.774446 35.0966 0 
31.6412 26.9637 0 
4.83934 10.0915 0 
10.0788 5.6899 0 
32.4448 -25.8277 0 
-1.7651 -34.3632 0 
-39.7994 2.71322 0 
-6.90096 -7.22696 0 
23.4938 28.8446 0 
-21.984 18.1803 0 
-26.6441 -15.6215 0 
-40.8781 13.331 0 
44.4826 -17.8937 0 
-35.0768 -18.7622 0 
-23.1392 36.1841 0 
-8.47994 -12.6846 0 
26.2141 10.6412 0 
-5.93039 -46.9937 0 
-17.4716 7.36862 0 
25.065 7.15703 0 
7.71786 35.5375 0 
45.7189 -7.63976 0 
-6.49775 13.1256 0 
-34.1424 -21.003 0 
11.597 14.5641 0 
6.87195 -3.79254 0 
9.79041 -44.4334 0 
-37.8786 21.5044 0 
-22.315 11.1663 0 
-1.90004 -24.0981 0 
-21.1655 23.792 0 
22.2729 -13.2122 0 
24.067 -19.363 0 
4.87071 14.0769 0 
-16.9122 23.6876 0 
-12.8811 -6.26461 0 
-35.9382 33.0978 0 
21.4929 37.0477 0 
35.5439 -17.8081 0 
-10.3408 -33.1248 0 
27.2243 18.6519 0 
-39.2637 -0.393835 0 
20.6617 16.6725 0 
-9.48359 6.15164 0 
25.582 -9.17212 0 
45.8836 1.81205 0 
40.3217 14.2825 0 
2.4193 45.3641 0 
-0.83393 -47.1138 0 
-10.801 22.5044 0 
26.8334 37.152 0 
-12.1207 48.149 0 
-39.8834 -22.0557 0 
29.8432 -28.3201 0 
-1.09831 -3.125 0 
34.7078 -23.0635 0 
9.94446 -27.187 0 
-1.74231 -47.6372 0 
22.8435 17.0324 0 
-0.755988 22.4499 0 
-14.427 33.7689 0 
-10.4627 -21.6431 0 
28.4763 -16.0035 0 
33.9714 18.0479 0 
7.72389 29.7731 0 
35.8934 -7.36354 0 
-8.16056 9.81557 0 
-12.0629 1.73334 0 
17.1674 -22.9179 0 
-16.2711 40.9223 0 
6.46154 12.9836 0 
-38.7221 -6.64926 0 
-30.8407 -26.0435 0 
-2.32662 24.9093 0 
21.062 -15.4326 0 
18.8502 -20.6853 0 
-25.5732 -11.4192 0 
-37.9287 -25.9676 0 
-30.5045 1.12331 0 
-15.8745 35.3623 0 
1.48426 39.9753 0 
-43.8935 -12.4149 0 
-22.717 -4.91234 0 
24.2254 -39.3482 0 
-11.882 5.24398 0 
9.34153 40.2161 0 
13.7486 -26.2658 0 
-3.96772 -30.4168 0 
-14.1407 24.6124 0 
-18.7008 -0.897081 0 
10.4789 -5.53691 0 
2.50915 39.9823 0 
1.54742 7.11828 0 
-1.84124 -10.1579 0 
-34.3686 21.2937 0 
33.2927 2.66071 0 
-31.2495 -33.5586 0 
36.9502 -28.5005 0 
-18.172 38.288 0 
37.4021 8.16965 0 
3.26425 -9.29172 0 
18.2408 -17.7008 0 
27.2147 -37.2596 0 
4.99328 -15.3792 0 
13.0414 -1.76823 0 
-26.9363 -32.8878 0 
-32.208 29.1304 0 
16.1403 -34.4801 0 
-12.4824 7.48667 0 
20.49 -16.079 0 
6.46804 -33.1192 0 
42.1582 -19.9007 0 
-34.5888 3.96879 0 
0.814712 19.9801 0 
-24.9169 32.7578 0 
24.1863 15.2142 0 
43.5804 -19.3326 0 
15.2497 22.1311 0 
-16.5331 42.9725 0 
-29.1688 -20.4806 0 
5.25913 31.2051 0 
9.39022 -31.8833 0 
-8.37655 34.0534 0 
-11.4933 9.16171 0 
24.2955 39.3229 0 
-39.7634 10.5743 0 
37.8791 -5.20148 0 
7.37098 43.5917 0 
-32.7181 -16.4447 0 
17.5407 15.1479 0 
12.7784 -35.4593 0 
43.8378 0.366351 0 
42.2282 -3.32973 0 
11.8546 -29.7841 0 
-44.8339 -5.92596 0 
18.6015 2.69612 0 
40.3003 -16.0505 0 
-35.0722 -1.56627 0 
-1.64075 7.7908 0 
-24.7944 -11.3249 0 
30.5946 9.57304 0 
19.3904 -4.31934 0 
14.7952 32.9553 0 
-1.94034 12.3716 0 
-27.7833 -8.78152 0 
-2.18157 -13.3581 0 
29.9704 -1.24921 0 
39.8213 -9.7133 0 
25.6156 -5.66903 0 
-2.42752 20.78 0 
2.05087 19.3827 0 
-31.7932 24.527 0 
-43.1493 14.358 0 
-27.9213 21.8853 0 
15.9372 9.83181 0 
9.79043 11.5179 0 
-38.4368 8.56597 0 
36.461 13.911 0 
-31.9215 -27.2447 0 
34.252 34.9451 0 
-33.2576 6.17901 0 
32.9537 -5.53376 0 
4.0188 -34.8687 0 
-9.37384 29.1213 0 
-35.9637 -8.70959 0 
26.4101 -23.8748 0 
-26.7403 -28.6117 0 
-6.93613 34.7608 0 
-30.5054 18.3123 0 
-38.546 11.9284 0 
31.0035 28.8839 0 
38.3285 -24.7976 0 
-46.4622 13.5151 0 
-24.9323 -26.0055 0 
33.4173 -16.9988 0 
-25.4717 36.1982 0 
7.71646 -4.23262 0 
-32.5739 -23.5685 0 
9.85474 -41.2149 0 
26.3894 3.58789 0 
-39.8344 22.5734 0 
-11.1286 38.9838 0 
28.6009 -26.2717 0 
-19.9535 12.3972 0 
37.0783 23.4692 0 
15.3652 -24.5624 0 
15.3168 -39.2302 0 
-26.491 26.467 0 
9.64163 -16.5454 0 
-43.2871 11.7976 0 
-22.3732 -21.4463 0 
-7.71145 23.1029 0 
-26.1647 39.9553 0 
-23.0605 -2.76906 0 
-5.26663 2.47182 0 
-8.07942 -21.4445 0 
42.6278 6.80846 0 
-5.63342 -14.3154 0 
35.3753 -19.271 0 
-21.1083 -27.0074 0 
-26.2442 20.3984 0 
-8.88544 14.721 0 
-17.7554 9.64995 0 
31.1379 22.053 0 
-2.83088 45.4395 0 
-15.2725 18.3235 0 
10.6558 -36.1937 0 
-37.0944 23.9663 0 
-42.407 -5.51486 0 
-23.7842 22.1948 0 
-15.4475 -18.0309 0 
32.3272 37.1612 0 
-7.69881 48.0797 0 
19.1659 11.7934 0 
21.0589 7.61135 0 
-0.0109835 -0.769975 0 
37.3089 -15.0633 0 
-7.96808 -20.5134 0 
-25.2463 -0.138366 0 
8.89546 22.1948 0 
1.51904 -7.8489 0 
-12.1108 -39.4827 0 
13.4917 -15.0889 0 
0.223932 -14.564 0 
-5.2069 4.45753 0 
-16.4054 -30.0938 0 
-24.9472 3.36619 0 
-36.0507 -28.6554 0 
39.7985 -6.59108 0 
27.2244 -31.2741 0 
19.244 41.0923 0 
-4.26001 -38.6481 0 
25.5378 26.4901 0 
-17.6172 -33.3754 0 
-3.58328 13.6003 0 
16.3393 29.8609 0 
12.6535 -40.4489 0 
-3.90704 -47.469 0 
7.63407 -26.9554 0 
42.5905 3.50633 0 
29.3978 -19.6476 0 
-15.4324 0.420841 0 
-19.9154 -9.97222 0 
29.3324 24.5136 0 
-34.0819 -5.78892 0 
-1.92395 30.3035 0 
30.6292 -35.08 0 
-35.0244 20.0349 0 
17.9434 -7.98207 0 
-44.2729 5.78316 0 
-42.9889 -15.9901 0 
-19.6743 0.17621 0 
-7.00865 -28.7485 0 
3.81537 45.121 0 
16.7841 -43.04 0 
4.48669 9.53053 0 
3.15024 25.9805 0 
-33.0047 14.6976 0 
11.5503 7.76352 0 
-34.0403 -27.7928 0 
-14.1734 -20.2618 0 
-4.24871 -42.6074 0 
-33.7707 -31.0409 0 
-40.8733 6.03094 0 
25.4225 -36.5667 0 
14.3308 -12.7663 0 
12.632 20.2279 0 
26.5745 19.3029 0 
-16.7995 -13.5331 0 
-6.50312 44.1768 0 
-38.087 31.7659 0 
-22.0437 39.9719 0 
-27.5907 25.2048 0 
10.4401 27.427 0 
-15.4359 12.7042 0 
3.33998 6.61652 0 
7.43042 -12.0277 0 
20.6481 -28.0367 0 
-18.0501 6.41822 0 
21.9078 21.4816 0 
-8.31682 -1.4299 0 
23.1887 -34.7249 0 
-16.8354 -15.8496 0 
26.7109 -24.6918 0 
-8.60934 12.925 0 
-6.63536 30.5065 0 
-11.5097 27.9052 0 
29.9175 -11.9638 0 
10.849 -21.3892 0 
-1.45335 -42.5303 0 
-30.2435 32.4944 0 
1.01085 -40.9982 0 
-39.0454 -11.6509 0 
-38.546 30.9238 0 
-31.1176 -8.56162 0 
0.999717 -34.8685 0 
-4.48633 -32.7631 0 
1.89787 -47.1357 0 
34.5183 -27.4707 0 
-39.6988 -8.54563 0 
-5.13493 -18.4127 0 
7.27785 -37.244 0 
46.0589 -12.6037 0 
-32.4229 9.60258 0 
-3.7931 36.1609 0 
8.15654 3.84814 0 
-18.1881 15.5 0 
-22.24 -39.141 0 
14.9422 16.8774 0 
19.9484 29.3987 0 
3.73717 31.8445 0 
4.42553 -10.2779 0 
-14.1713 19.12 0 
24.6341 -33.4661 0 
6.9278 -23.438 0 
14.784 -28.2884 0 
-20.6938 -22.9056 0 
2.78227 -20.7453 0 
-16.0232 -23.3345 0 
-13.0721 34.3149 0 
29.6105 -34.4782 0 
-44.9864 -0.328019 0 
0.668589 -8.67674 0 
15.2058 -10.4184 0 
-0.800556 27.5495 0 
7.37243 -40.6875 0 
44.1185 8.44686 0 
-13.4077 -31.4222 0 
-13.9343 43.0583 0 
-4.15406 -2.54209 0 
12.1684 39.4429 0 
-32.9475 34.0827 0 
-37.6906 5.26665 0 
12.1133 44.4322 0 
2.05739 -5.62698 0 
6.67163 45.507 0 
8.46354 0.65386 0 
-39.0235 -1.65733 0 
-1.93439 13.5656 0 
13.3705 6.88419 0 
[...]
<CellData Scalars="wall variable 0">
<DataArray type="Float64" Name="wall length" format="ascii">
2.40651 1.76958 2.65547 2.36842 5.91218 0.880981 2.37395 2.9952 2.9686 4.60165 5.11446 2.37301 2.72464 3.62392 3.11658 7.93896 0.86166 3.59075 3.3229 3.23258 4.32688 4.8891 1.389 4.77272 1.84716 3.47815 4.75716 4.36252 4.47052 4.75716 4.75716 3.17881 4.37644 3.76189 3.71358 1.63913 3.66231 2.28755 1.60842 2.77488 2.98579 2.98579 1.21354 2.80866 4.52611 4.50378 4.53948 5.35235 2.20727 4.39022 4.41799 2.31574 4.1603 3.49582 3.47566 5.82461 2.84397 4.92122 4.62196 3.94242 5.60033 5.1539 2.3714 3.8486 4.57303 3.04713 4.06425 3.88184 4.3129 3.29157 7.61462 1.89649 2.84397 2.84713 4.1129 3.92697 3.94306 3.92101 1.1316 2.16061 3.78275 2.91848 2.76132 7.97163 4.09128 1.87754 3.05256 3.11658 2.11125 2.15562 3.69477 6.36709 3.38205 0.770801 4.08762 3.66768 2.35133 2.27825 3.45204 6.40176 3.36434 2.88969 3.04868 2.28926 1.3251 2.88296 3.38274 3.76048 7.28724 2.82836 1.39422 5.10619 1.49784 3.33064 3.7657 3.81762 3.39597 3.93094 1.19537 2.87852 3.42214 4.24596 3.46393 6.5046 1.75375 1.55805 3.27232 4.19904 4.04566 4.8891 4.34035 3.43987 3.93398 1.93163 1.44978 2.41691 6.38668 5.01964 0.86166 2.44818 9.70836 1.43837 2.24682 4.70394 4.24951 2.5197 2.56053 3.67461 5.316 1.25672 3.79296 3.97924 2.94312 5.717 2.82887 3.8053 1.85799 5.29448 3.75597 2.22306 4.84325 4.38098 4.10541 2.88969 2.88969 3.1473 3.1473 6.09765 1.55805 3.69431 3.23258 3.99917 3.3369 2.98086 0.880981 3.09881 4.97617 1.0066 4.60165 2.85822 6.41938 3.5726 3.87065 2.86673 7.15579 3.2674 1.84721 3.22445 3.87759 1.16136 7.15579 4.43943 3.10678 1.77291 3.04225 0.648521 1.6042 2.95502 2.94013 5.1539 4.09846 2.17467 4.48588 5.27519 1.90785 3.12172 2.87893 2.38167 1.64785 7.06401 2.74739 3.92697 3.39889 2.10328 3.10514 2.6926 4.67651 4.13086 0.915496 4.41799 2.14111 4.92222 1.37513 4.02391 4.04042 3.45017 4.22303 2.24902 4.53836 2.17026 4.08762 6.1952 3.56633 3.71358 6.16692 3.88913 4.42826 6.38668 3.75346 3.59506 2.99616 3.39597 0.790518 2.36112 3.38949 3.47566 2.45907 2.39998 3.41173 5.72645 3.24527 4.09846 4.06425 4.30331 3.2266 3.24685 8.45793 2.79915 2.69144 5.46362 3.57373 1.91348 5.11446 1.0066 4.30122 3.53131 2.2536 3.81594 2.28663 4.64068 3.85271 3.89958 1.78716 5.39886 3.11675 3.35278 3.33228 2.52188 3.42214 6.09765 3.47885 3.43987 0.790518 3.81762 5.46509 1.84721 3.37176 2.17522 1.98886 4.14876 3.86325 1.82225 3.24959 3.38218 4.42553 2.04785 3.08593 5.65215 3.07034 3.90014 2.88128 4.35051 5.05917 2.99739 3.92101 3.38919 1.00124 2.09207 3.66768 2.17026 3.22845 3.29157 3.67676 1.40131 4.38855 5.30489 4.02391 4.7652 2.02626 2.33533 2.35746 3.99448 2.27825 2.3313 6.90749 1.71836 1.24295 1.50176 4.93206 2.85513 5.717 4.56415 3.42987 3.28958 3.35278 3.3369 1.78857 3.76635 2.53904 6.81461 3.04225 1.74762 3.93929 0.337764 5.59071 2.28021 2.88765 3.93694 0.681402 3.78275 4.83611 1.56551 6.07224 2.73691 2.4911 2.94581 1.56551 0.910983 2.94286 4.39111 2.55632 2.60555 4.39111 3.0492 2.65547 8.01306 2.7444 1.12287 4.14114 3.0869 3.42987 2.86551 4.74791 1.6042 7.49796 3.24925 2.54615 2.60317 4.73303 3.09345 3.08593 2.14472 3.6293 3.41848 3.80098 2.17626 4.43214 2.57421 3.04079 3.07757 7.64925 4.3129 2.26483 2.96924 3.35551 3.55492 3.48125 3.67676 2.4911 3.07625 2.96074 3.14559 2.33843 2.91848 3.18655 3.48765 7.401 1.70401 3.82097 3.41173 1.75487 4.59271 2.95502 4.73303 3.12891 5.04174 3.59075 5.01964 3.70408 2.66957 2.7861 3.2813 3.19173 3.19625 3.07757 2.87104 2.18774 6.30463 1.19537 2.88296 8.29924 2.47482 3.46846 4.50838 3.41884 3.33632 3.04529 3.75238 4.62797 2.16133 2.35094 3.11675 3.24183 2.98409 2.75087 2.8004 2.59776 1.42451 4.17927 2.95618 1.71836 1.50629 2.91208 2.91208 2.51631 3.06951 4.59344 1.30938 2.64355 8.54847 1.18462 2.00797 7.75479 2.50829 4.22303 4.14016 0.984978 5.26838 2.91208 1.31813 3.90569 3.33064 2.18377 4.12571 1.09632 3.46391 0.984978 5.61912 1.60842 2.81428 2.88765 2.93085 8.26615 3.06636 4.37644 1.217 3.40653 3.95862 2.14111 5.82461 3.38949 4.82112 2.55341 2.55341 1.98886 7.42102 2.85024 2.64912 3.02694 4.17443 3.33706 3.56643 2.09994 4.43214 2.19274 4.57293 0.904095 1.18515 7.71509 3.80735 2.31211 5.89781 3.80692 4.11709 4.05227 2.98936 5.33993 0.904095 3.99177 8.54847 2.64355 3.5312 3.86476 3.42327 2.19899 4.70659 2.87184 4.84608 3.69477 4.38751 6.07224 2.94581 3.04633 3.76635 2.73691 4.38751 1.74762 1.77291 7.53685 3.07625 3.36434 0.373815 3.77442 5.29448 4.53043 1.76338 3.48775 3.80692 3.11417 3.11476 2.50305 6.26405 4.00942 3.42094 1.49129 6.0114 2.33533 4.67588 4.64068 2.35094 8.24272 3.48851 2.82836 1.00007 3.38098 3.50615 3.87065 3.80665 2.82836 7.75479 2.15863 1.28216 3.29642 3.5326 2.49617 2.47905 2.91208 5.26838 3.46391 3.37772 3.50856 2.40651 7.01833 0.838841 2.44722 3.30184 2.19881 2.86551 4.56415 2.94187 2.83387 4.65696 1.31983 5.48708 3.37396 5.316 3.68368 2.30572 1.49784 3.05256 3.32258 3.86476 2.38532 2.44818 7.93896 2.3313 2.35133 1.76338 2.04868 2.83565 2.3313 4.14114 4.74239 4.01201 2.10328 4.89792 1.25905 5.98773 2.66957 4.17545 2.02283 0.867501 3.95862 3.17344 2.86371 4.16191 3.22487 3.22487 2.75087 2.80866 4.96471 2.86673 3.50615 4.10796 2.70116 3.33228 3.28958 3.0869 1.25905 3.93249 2.73016 3.30701 3.1473 3.18787 1.43837 0.377681 4.95659 3.11411 7.89378 2.93085 2.28021 2.28021 1.3302 1.64785 2.64355 2.64355 3.89157 3.98335 3.50261 3.30701 3.3144 4.34772 3.1473 3.30701 1.18462 3.99177 3.32258 1.87754 2.88086 1.91348 3.9602 1.70401 2.63601 2.20727 4.38683 4.35617 2.85037 2.50791 2.4893 2.84578 4.70659 3.46464 3.79296 3.69826 3.67241 2.04868 4.53043 1.85799 2.22401 2.51078 0.964085 2.41269 2.43689 4.42826 1.85365 4.2879 4.11709 4.57293 4.14016 6.1952 0.770801 4.27462 3.13075 1.93307 3.49582 3.47484 3.29642 9.71126 2.45907 3.11411 3.11411 2.38167 4.1129 3.20783 1.39397 3.04196 2.95553 2.82702 6.32781 1.24295 2.94312 1.1316 2.78076 3.10908 2.58424 2.35746 6.0114 2.20793 4.01201 3.53951 3.88209 3.60984 5.88313 3.10514 9.70836 2.38532 3.5312 3.50261 3.39913 0.377681 2.1197 2.1197 3.93249 4.89792 3.39889 3.43776 4.21737 4.23976 3.98291 3.43776 4.13086 4.11627 1.27975 4.35051 3.61885 7.71509 3.76642 4.19904 1.63147 3.46739 4.62196 4.92665 3.77567 2.09041 2.59432 3.12734 4.62195 3.41352 3.59974 3.55458 2.64912 3.03988 0.337764 3.7737 3.62697 2.59015 5.36624 6.24022 3.69826 3.54922 3.69349 3.20876 4.05197 3.37176 5.85692 2.92598 5.469 3.22115 2.86371 2.98409 1.2234 5.49197 0.638888 4.09919 4.38098 4.34772 1.52554 1.67797 5.45466 5.5059 4.22707 2.73016 2.1197 5.49046 3.3854 7.89378 3.11411 3.33425 2.51631 2.47905 1.09632 3.44012 3.10908 4.56706 4.9618 1.90785 1.24631 7.49977 3.11417 5.89781 5.01107 4.08782 1.5028 5.23014 3.39446 6.41938 3.26574 3.4858 4.58315 4.17714 2.28926 4.03435 4.00326 3.33632 4.8544 4.55722 3.13075 4.42086 4.21737 4.16111 1.75487 3.19496 6.22066 1.90647 2.47482 2.38406 3.75913 1.78716 2.00797 1.93307 4.55722 5.04174 3.85559 4.07206 2.15863 0.964085 7.71347 2.42558 3.14559 1.8772 3.54922 4.27462 3.38205 3.3507 2.95651 4.23976 4.42086 4.58315 3.43728 3.27601 3.20876 3.301 3.36135 1.96608 3.77705 2.82836 7.28724 2.30572 3.82284 3.62697 9.63233 1.52554 3.3144 2.81284 3.89157 1.30938 3.04761 3.3229 3.19173 3.16427 5.1938 0.284822 2.24499 3.81594 3.19805 3.2216 1.63147 3.27232 2.21392 2.97872 5.05917 0.838841 2.68972 2.9952 2.7175 4.28669 2.54418 3.40295 3.32223 4.38855 2.64647 2.62955 4.62195 4.2391 3.26574 2.85822 4.96471 1.21354 3.34583 5.90904 2.94869 2.48624 1.63913 3.56633 2.43689 4.88312 2.68241 2.76132 2.33843 2.42558 2.34628 2.96924 1.75375 3.7438 5.52284 2.21392 4.34035 4.32688 3.69431 2.97872 5.52284 3.0877 4.92665 4.92122 1.89649 2.99739 1.18515 3.48775 3.46413 2.54823 3.20116 1.389 4.04566 3.76642 2.47754 2.11125 3.62392 0.284822 2.5634 2.47754 4.8544 3.24183 5.39886 3.75913 4.65563 3.53131 1.38715 6.85331 2.55341 2.24514 4.81571 3.3854 0.376156 4.48342 3.40295 3.38092 3.48084 3.46393 1.62617 2.16061 2.20793 1.49129 6.87138 0.910983 4.83611 1.93163 2.44319 2.53904 3.04633 2.60555 7.64525 1.50967 3.14366 2.56053 6.13135 5.01107 2.31211 1.13871 4.16191 3.22115 2.09994 4.79885 3.02694 3.55458 6.29849 2.57421 2.02283 4.94304 1.52342 3.38274 3.41884 4.97683 3.42094 2.36477 2.36842 3.0492 2.94286 6.87138 5.49197 2.59713 2.59015 3.82284 3.68368 3.67461 3.14366 2.6926 5.88313 3.63929 4.57303 1.71242 4.94304 4.17545 3.70408 4.70394 4.86051 3.53036 4.85853 3.04211 3.46413 6.26405 0.94921 3.27601 2.79056 7.42102 2.17522 4.05197 3.42813 3.38092 2.54418 7.75388 2.09041 4.20279 1.39422 3.80665 3.5726 3.39446 2.50704 5.4793 3.93694 2.81428 2.28755 3.57197 3.38919 3.94306 2.74739 2.74739 2.59776 3.14345 5.65215 3.09345 3.79738 2.73613 3.20116 8.5834 2.94187 1.78857 3.99917 4.77272 3.33425 3.04196 3.45204 3.45204 3.99448 2.95618 3.37772 7.33342 1.217 3.17881 3.47815 3.75691 4.84608 2.85873 8.45793 2.88086 4.09128 7.75388 2.62955 3.72755 1.06758 2.22306 3.45014 2.59432 2.84578 3.19619 3.52513 3.47423 2.79915 2.85873 2.87184 2.19899 4.90967 3.109 2.95553 3.97924 3.46464 2.17626 3.4145 3.59506 1.48785 5.90904 2.41269 2.19274 8.26615 0.867501 4.97683 4.50838 2.93488 2.3714 2.94013 4.59271 4.16111 1.27975 3.26939 4.17714 4.65563 2.38406 8.29924 1.3251 8.01306 1.76958 3.50856 3.75691 1.84716 2.70815 2.50829 2.49617 3.85748 2.31574 0.915496 4.48588 4.48588 2.86102 2.24902 5.54469 4.03435 3.04868 4.10541 4.09919 3.57197 3.66231 4.10796 3.38098 5.38173 0.681402 0.948927 3.69349 1.8772 2.96074 7.53685 3.10678 3.14345 2.8004 3.22487 5.73137 1.00124 1.00007 3.77705 3.7737 3.93929 5.38173 4.14876 3.33706 2.98012 2.98936 1.91961 5.72391 3.109 1.6172 1.56046 3.19805 2.2536 4.81571 2.84611 2.82702 3.19496 3.89958 4.71336 1.91961 4.05227 4.2879 3.19496 3.49209 2.77488 5.61912 4.12571 3.81375 3.15923 7.49796 2.17467 3.24527 3.49402 3.38616 3.93398 3.47885 3.2674 0.648521 6.81461 2.44319 2.47754 2.8953 3.2216 1.56046 7.01527 7.401 3.48555 2.63037 4.39022 2.63601 1.6763 3.85559 3.12891 2.60317 6.4368 5.54469 0.638888 2.12359 2.80964 3.04529 4.00326 2.66546 6.1071 1.44978 1.50967 2.39384 3.01923 2.7444 2.70815 4.47052 0.496724 3.01923 4.59639 2.18774 0.741147 7.12864 2.98579 3.49209 2.18774 3.59974 2.73117 0.741147 2.87104 3.04079 6.29849 8.5834 2.54823 3.04211 4.34596 4.35846 2.51779 2.83387 4.04042 5.30489 2.58424 3.44012 4.02714 6.36709 2.09207 3.32223 4.48342 3.36159 3.3507 3.0877 3.7438 6.5046 3.48084 3.42813 3.77567 3.55492 3.34081 2.22401 4.84325 1.06758 6.54193 5.72645 3.82097 2.85037 2.85831 4.93206 3.08027 3.75597 3.77442 3.98497 1.32136 3.94242 3.46739 3.45014 3.43728 3.4858 4.2391 3.12734 2.85024 2.79056 3.06471 3.86325 5.72391 4.71336 3.85271 4.67588 2.6026 2.7175 2.72464 3.16427 3.16427 3.2813 1.94416 2.44722 4.28669 2.6026 2.7861 5.98773 3.79738 3.80098 0.970087 5.31039 2.50791 3.8053 2.85236 2.19881 6.04153 5.50009 2.54604 3.53951 4.74239 4.74791 2.4893 5.31039 3.81857 3.19619 7.33342 3.30184 1.94416 3.17344 3.40653 4.54211 4.47735 4.65696 2.51779 3.40801 3.35551 2.34628 7.71347 2.51078 3.34081 3.85748 3.5326 3.47484 4.1603 2.64647 1.40131 3.48125 6.54193 3.72755 3.90014 1.06474 4.38683 5.35235 4.55729 1.16136 1.57794 2.83565 3.67241 6.24022 0.948927 4.43943 3.56643 5.33993 2.98012 4.17443 4.79885 7.97163 2.68241 1.16767 4.56706 2.78076 1.57405 5.36624 2.59713 1.2234 4.17927 4.59884 4.7652 1.37513 2.83835 1.38715 4.30122 4.97617 3.44224 2.63037 3.88585 3.24925 3.15923 4.0377 2.9964 4.52611 7.01833 2.37395 2.98086 2.9686 2.68972 2.52188 2.70116 4.22707 1.62617 4.24596 2.93488 3.46846 1.90647 1.41117 6.16692 3.76189 3.06636 7.64925 3.19625 3.93094 2.99616 3.4145 4.88312 2.26483 3.88184 1.42003 3.12172 4.9618 1.16767 9.71126 1.28216 4.07206 1.6763 3.78826 3.18655 2.39998 3.48555 3.48765 3.78826 6.4368 2.54615 3.88585 3.90569 3.94129 3.22445 5.46509 3.7657 2.87893 1.42003 7.61462 3.22845 4.53836 2.86102 3.41845 3.20783 2.84713 5.60033 1.32136 4.00942 2.02626 3.44224 3.09881 5.91218 2.36477 3.8486 3.26939 4.11627 4.67651 1.71242 1.12287 4.59639 2.39384 7.64525 2.55632 4.82112 2.36112 3.08027 1.50176 6.32781 2.84611 2.24514 3.07034 2.73613 2.85236 2.82887 2.85513 2.85831 4.35617 1.06474 2.24682 3.18787 2.88969 3.76048 1.52342 4.86051 4.48588 3.45017 4.02714 1.24631 5.27519 3.90187 4.59884 1.42451 2.74739 7.06401 1.3302 3.87759 3.94129 1.31813 1.50629 6.90749 2.3313 1.57794 2.28021 5.59071 3.03988 1.57405 3.90187 2.95651 3.36159 0.376156 5.49046 2.1197 3.98291 3.19496 1.85365 3.88913 1.41117 6.22066 2.5634 5.1938 3.16427 2.37301 2.28663 2.24499 2.8953 4.92222 2.55341 6.85331 2.83835 3.61885 2.88128 5.73137 3.22487 1.13871 3.80735 3.42327 2.15562 2.47754 7.01527 1.6172 4.90967 3.41352 3.34583 2.98579 7.12864 2.73117 2.48624 2.66546 2.66546 0.496724 4.36252 4.75716 3.98335 2.81284 3.30701 4.95659 3.39913 2.18377 2.87852 6.30463 2.18774 3.81375 1.48785 3.75346 2.41691 6.1071 2.66546 2.94869 6.40176 3.45204 1.39397 3.41845 3.98497 0.373815 
</DataArray>
<DataArray type="Float64" Name="wall variable 0" format="ascii">
0 0 0 0 0 0 0 0 0 0 0 0 0 0 0 0 0 0 0 0 0 0 0 0 0 0 0 0 0 0 0 0 0 0 0 0 0 0 0 0 0 0 0 0 0 0 0 0 0 0 0 0 0 0 0 0 0 0 0 0 0 0 0 0 0 0 0 0 0 0 0 0 0 0 0 0 0 0 0 0 0 0 0 0 0 0 0 0 0 0 0 0 0 0 0 0 0 0 0 0 0 0 0 0 0 0 0 0 0 0 0 0 0 0 0 0 0 0 0 0 0 0 0 0 0 0 0 0 0 0 0 0 0 0 0 0 0 0 0 0 0 0 0 0 0 0 0 0 0 0 0 0 0 0 0 0 0 0 0 0 0 0 0 0 0 0 0 0 0 0 0 0 0 0 0 0 0 0 0 0 0 0 0 0 0 0 0 0 0 0 0 0 0 0 0 0 0 0 0 0 0 0 0 0 0 0 0 0 0 0 0 0 0 0 0 0 0 0 0 0 0 0 0 0 0 0 0 0 0 0 0 0 0 0 0 0 0 0 0 0 0 0 0 0 0 0 0 0 0 0 0 0 0 0 0 0 0 0 0 0 0 0 0 0 0 0 0 0 0 0 0 0 0 0 0 0 0 0 0 0 0 0 0 0 0 0 0 0 0 0 0 0 0 0 0 0 0 0 0 0 0 0 0 0 0 0 0 0 0 0 0 0 0 0 0 0 0 0 0 0 0 0 0 0 0 0 0 0 0 0 0 0 0 0 0 0 0 0 0 0 0 0 0 0 0 0 0 0 0 0 0 0 0 0 0 0 0 0 0 0 0 0 0 0 0 0 0 0 0 0 0 0 0 0 0 0 0 0 0 0 0 0 0 0 0 0 0 0 0 0 0 0 0 0 0 0 0 0 0 0 0 0 0 0 0 0 0 0 0 0 0 0 0 0 0 0 0 0 0 0 0 0 0 0 0 0 0 0 0 0 0 0 0 0 0 0 0 0 0 0 0 0 0 0 0 0 0 0 0 0 0 0 0 0 0 0 0 0 0 0 0 0 0 0 0 0 0 0 0 0 0 0 0 0 0 0 0 0 0 0 0 0 0 0 0 0 0 0 0 0 0 0 0 0 0 0 0 0 0 0 0 0 0 0 0 0 0 0 0 0 0 0 0 0 0 0 0 0 0 0 0 0 0 0 0 0 0 0 0 0 0 0 0 0 0 0 0 0 0 0 0 0 0 0 0 0 0 0 0 0 0 0 0 0 0 0 0 0 0 0 0 0 0 0 0 0 0 0 0 0 0 0 0 0 0 0 0 0 0 0 0 0 0 0 0 0 0 0 0 0 0 0 0 0 0 0 0 0 0 0 0 0 0 0 0 0 0 0 0 0 0 0 0 0 0 0 0 0 0 0 0 0 0 0 0 0 0 0 0 0 0 0 0 0 0 0 0 0 0 0 0 0 0 0 0 0 0 0 0 0 0 0 0 0 0 0 0 0 0 0 0 0 0 0 0 0 0 0 0 0 0 0 0 0 0 0 0 0 0 0 0 0 0 0 0 0 0 0 0 0 0 0 0 0 0 0 0 0 0 0 0 0 0 0 0 0 0 0 0 0 0 0 0 0 0 0 0 0 0 0 0 0 0 0 0 0 0 0 0 0 0 0 0 0 0 0 0 0 0 0 0 0 0 0 0 0 0 0 0 0 0 0 0 0 0 0 0 0 0 0 0 0 0 0 0 0 0 0 0 0 0 0 0 0 0 0 0 0 0 0 0 0 0 0 0 0 0 0 0 0 0 0 0 0 0 0 0 0 0 0 0 0 0 0 0 0 0 0 0 0 0 0 0 0 0 0 0 0 0 0 0 0 0 0 0 0 0 0 0 0 0 0 0 0 0 0 0 0 0 0 0 0 0 0 0 0 0 0 0 0 0 0 0 0 0 0 0 0 0 0 0 0 0 0 0 0 0 0 0 0 0 0 0 0 0 0 0 0 0 0 0 0 0 0 0 0 0 0 0 0 0 0 0 0 0 0 0 0 0 0 0 0 0 0 0 0 0 0 0 0 0 0 0 0 0 0 0 0 0 0 0 0 0 0 0 0 0 0 0 0 0 0 0 0 0 0 0 0 0 0 0 0 0 0 0 0 0 0 0 0 0 0 0 0 0 0 0 0 0 0 0 0 0 0 0 0 0 0 0 0 0 0 0 0 0 0 0 0 0 0 0 0 0 0 0 0 0 0 0 0 0 0 0 0 0 0 0 0 0 0 0 0 0 0 0 0 0 0 0 0 0 0 0 0 0 0 0 0 0 0 0 0 0 0 0 0 0 0 0 0 0 0 0 0 0 0 0 0 0 0 0 0 0 0 0 0 0 0 0 0 0 0 0 0 0 0 0 0 0 0 0 0 0 0 0 0 0 0 0 0 0 0 0 0 0 0 0 0 0 0 0 0 0 0 0 0 0 0 0 0 0 0 0 0 0 0 0 0 0 0 0 0 0 0 0 0 0 0 0 0 0 0 0 0 0 0 0 0 0 0 0 0 0 0 0 0 0 0 0 0 0 0 0 0 0 0 0 0 0 0 0 0 0 0 0 0 0 0 0 0 0 0 0 0 0 0 0 0 0 0 0 0 0 0 0 0 0 0 0 0 0 0 0 0 0 0 0 0 0 0 0 0 0 0 0 0 0 0 0 0 0 0 0 0 0 0 0 0 0 0 0 0 0 0 0 0 0 0 0 0 0 0 0 0 0 0 0 0 0 0 0 0 0 0 0 0 0 0 0 0 0 0 0 0 0 0 0 0 0 0 0 0 0 0 0 0 0 0 0 0 0 0 0 0 0 0 0 0 0 0 0 0 0 0 0 0 0 0 0 0 0 0 0 0 0 0 0 0 0 0 0 0 0 0 0 0 0 0 0 0 0 0 0 0 0 0 0 0 0 0 0 0 0 0 0 0 0 0 0 0 0 0 0 0 0 0 0 0 0 0 0 0 0 0 0 0 0 0 0 0 0 0 0 0 0 0 0 0 0 0 0 0 0 0 0 0 0 0 0 0 0 0 0 0 0 0 0 0 0 0 0 0 0 0 0 0 0 0 0 0 0 0 0 0 0 0 0 0 0 0 0 0 0 0 0 0 0 0 0 0 0 0 0 0 0 0 0 0 0 0 0 0 0 0 0 0 0 0 0 0 0 0 0 0 0 0 0 0 0 0 0 0 0 0 0 0 0 0 0 0 0 0 0 0 0 0 0 0 0 0 0 0 0 0 0 0 0 0 0 0 0 0 0 0 0 0 0 0 0 0 0 0 0 0 0 0 0 0 0 0 0 0 0 0 0 0 0 0 0 0 0 0 0 0 0 0 0 0 0 0 0 0 0 0 0 0 0 0 0 0 0 0 0 0 0 0 0 0 0 0 0 0 0 0 0 0 0 0 0 0 0 0 0 0 0 0 0 0 0 0 0 0 0 0 0 0 0 0 0 0 0 0 0 0 0 0 0 0 0 0 0 0 0 0 0 0 0 0 0 0 0 0 0 0 0 0 0 0 0 0 0 0 0 0 0 0 0 0 0 0 0 0 0 0 0 0 0 0 0 0 0 0 0 0 0 0 0 0 0 
</DataArray>
<DataArray type="Float64" Name="wall variable 1" format="ascii">
0 0 0 0 0 0 0 0 0 0 0 0 0 0 0 0 0 0 0 0 0 0 0 0 0 0 0 0 0 0 0 0 0 0 0 0 0 0 0 0 0 0 0 0 0 0 0 0 0 0 0 0 0 0 0 0 0 0 0 0 0 0 0 0 0 0 0 0 0 0 0 0 0 0 0 0 0 0 0 0 0 0 0 0 0 0 0 0 0 0 0 0 0 0 0 0 0 0 0 0 0 0 0 0 0 0 0 0 0 0 0 0 0 0 0 0 0 0 0 0 0 0 0 0 0 0 0 0 0 0 0 0 0 0 0 0 0 0 0 0 0 0 0 0 0 0 0 0 0 0 0 0 0 0 0 0 0 0 0 0 0 0 0 0 0 0 0 0 0 0 0 0 0 0 0 0 0 0 0 0 0 0 0 0 0 0 0 0 0 0 0 0 0 0 0 0 0 0 0 0 0 0 0 0 0 0 0 0 0 0 0 0 0 0 0 0 0 0 0 0 0 0 0 0 0 0 0 0 0 0 0 0 0 0 0 0 0 0 0 0 0 0 0 0 0 0 0 0 0 0 0 0 0 0 0 0 0 0 0 0 0 0 0 0 0 0 0 0 0 0 0 0 0 0 0 0 0 0 0 0 0 0 0 0 0 0 0 0 0 0 0 0 0 0 0 0 0 0 0 0 0 0 0 0 0 0 0 0 0 0 0 0 0 0 0 0 0 0 0 0 0 0 0 0 0 0 0 0 0 0 0 0 0 0 0 0 0 0 0 0 0 0 0 0 0 0 0 0 0 0 0 0 0 0 0 0 0 0 0 0 0 0 0 0 0 0 0 0 0 0 0 0 0 0 0 0 0 0 0 0 0 0 0 0 0 0 0 0 0 0 0 0 0 0 0 0 0 0 0 0 0 0 0 0 0 0 0 0 0 0 0 0 0 0 0 0 0 0 0 0 0 0 0 0 0 0 0 0 0 0 0 0 0 0 0 0 0 0 0 0 0 0 0 0 0 0 0 0 0 0 0 0 0 0 0 0 0 0 0 0 0 0 0 0 0 0 0 0 0 0 0 0 0 0 0 0 0 0 0 0 0 0 0 0 0 0 0 0 0 0 0 0 0 0 0 0 0 0 0 0 0 0 0 0 0 0 0 0 0 0 0 0 0 0 0 0 0 0 0 0 0 0 0 0 0 0 0 0 0 0 0 0 0 0 0 0 0 0 0 0 0 0 0 0 0 0 0 0 0 0 0 0 0 0 0 0 0 0 0 0 0 0 0 0 0 0 0 0 0 0 0 0 0 0 0 0 0 0 0 0 0 0 0 0 0 0 0 0 0 0 0 0 0 0 0 0 0 0 0 0 0 0 0 0 0 0 0 0 0 0 0 0 0 0 0 0 0 0 0 0 0 0 0 0 0 0 0 0 0 0 0 0 0 0 0 0 0 0 0 0 0 0 0 0 0 0 0 0 0 0 0 0 0 0 0 0 0 0 0 0 0 0 0 0 0 0 0 0 0 0 0 0 0 0 0 0 0 0 0 0 0 0 0 0 0 0 0 0 0 0 0 0 0 0 0 0 0 0 0 0 0 0 0 0 0 0 0 0 0 0 0 0 0 0 0 0 0 0 0 0 0 0 0 0 0 0 0 0 0 0 0 0 0 0 0 0 0 0 0 0 0 0 0 0 0 0 0 0 0 0 0 0 0 0 0 0 0 0 0 0 0 0 0 0 0 0 0 0 0 0 0 0 0 0 0 0 0 0 0 0 0 0 0 0 0 0 0 0 0 0 0 0 0 0 0 0 0 0 0 0 0 0 0 0 0 0 0 0 0 0 0 0 0 0 0 0 0 0 0 0 0 0 0 0 0 0 0 0 0 0 0 0 0 0 0 0 0 0 0 0 0 0 0 0 0 0 0 0 0 0 0 0 0 0 0 0 0 0 0 0 0 0 0 0 0 0 0 0 0 0 0 0 0 0 0 0 0 0 0 0 0 0 0 0 0 0 0 0 0 0 0 0 0 0 0 0 0 0 0 0 0 0 0 0 0 0 0 0 0 0 0 0 0 0 0 0 0 0 0 0 0 0 0 0 0 0 0 0 0 0 0 0 0 0 0 0 0 0 0 0 0 0 0 0 0 0 0 0 0 0 0 0 0 0 0 0 0 0 0 0 0 0 0 0 0 0 0 0 0 0 0 0 0 0 0 0 0 0 0 0 0 0 0 0 0 0 0 0 0 0 0 0 0 0 0 0 0 0 0 0 0 0 0 0 0 0 0 0 0 0 0 0 0 0 0 0 0 0 0 0 0 0 0 0 0 0 0 0 0 0 0 0 0 0 0 0 0 0 0 0 0 0 0 0 0 0 0 0 0 0 0 0 0 0 0 0 0 0 0 0 0 0 0 0 0 0 0 0 0 0 0 0 0 0 0 0 0 0 0 0 0 0 0 0 0 0 0 0 0 0 0 0 0 0 0 0 0 0 0 0 0 0 0 0 0 0 0 0 0 0 0 0 0 0 0 0 0 0 0 0 0 0 0 0 0 0 0 0 0 0 0 0 0 0 0 0 0 0 0 0 0 0 0 0 0 0 0 0 0 0 0 0 0 0 0 0 0 0 0 0 0 0 0 0 0 0 0 0 0 0 0 0 0 0 0 0 0 0 0 0 0 0 0 0 0 0 0 0 0 0 0 0 0 0 0 0 0 0 0 0 0 0 0 0 0 0 0 0 0 0 0 0 0 0 0 0 0 0 0 0 0 0 0 0 0 0 0 0 0 0 0 0 0 0 0 0 0 0 0 0 0 0 0 0 0 0 0 0 0 0 0 0 0 0 0 0 0 0 0 0 0 0 0 0 0 0 0 0 0 0 0 0 0 0 0 0 0 0 0 0 0 0 0 0 0 0 0 0 0 0 0 0 0 0 0 0 0 0 0 0 0 0 0 0 0 0 0 0 0 0 0 0 0 0 0 0 0 0 0 0 0 0 0 0 0 0 0 0 0 0 0 0 0 0 0 0 0 0 0 0 0 0 0 0 0 0 0 0 0 0 0 0 0 0 0 0 0 0 0 0 0 0 0 0 0 0 0 0 0 0 0 0 0 0 0 0 0 0 0 0 0 0 0 0 0 0 0 0 0 0 0 0 0 0 0 0 0 0 0 0 0 0 0 0 0 0 0 0 0 0 0 0 0 0 0 0 0 0 0 0 0 0 0 0 0 0 0 0 0 0 0 0 0 0 0 0 0 0 0 0 0 0 0 0 0 0 0 0 0 0 0 0 0 0 0 0 0 0 0 0 0 0 0 0 0 0 0 0 0 0 0 0 0 0 0 0 0 0 0 0 0 0 0 0 0 0 0 0 0 0 0 0 0 0 0 0 0 0 0 0 0 0 0 0 0 0 0 0 0 0 0 0 0 0 0 0 0 0 0 0 0 0 0 0 0 0 0 0 0 0 0 0 0 0 0 0 0 0 0 0 0 0 0 0 0 0 0 0 0 0 0 0 0 0 0 0 0 0 0 0 0 0 0 0 0 0 0 0 0 0 0 0 0 0 0 0 0 0 0 0 0 0 0 0 0 0 0 0 0 0 0 0 0 0 0 0 0 0 0 
</DataArray>
<DataArray type="Float64" Name="wall variable 2" format="ascii">