<VTKFile type="UnstructuredGrid" version="0.1">
<UnstructuredGrid>
<Piece  NumberOfPoints="    2474" NumberOfCells="     413">
<Points>
<DataArray type="Float64" NumberOfComponents="3" format="ascii">
27.7082 -24.6561 0.0
27.8516 -20.6204 0.0
23.3945 -22.4299 0.0
21.3673 -23.3319 0.0
23.2577 -27.9693 0.0
25.0965 -28.1123 0.0
32.4387 -34.5628 0.0
32.3287 -34.0467 0.0
27.0483 -33.7352 0.0
26.3927 -34.2728 0.0
23.3963 -39.2782 0.0
-20.1611 46.7814 0.0
-22.7874 46.8175 0.0
-24.1802 46.6936 0.0
-25.4745 45.6739 0.0
-22.9266 41.3807 0.0
-20.4973 41.6313 0.0
0.217021 11.8215 0.0
-1.16057 13.1868 0.0
-8.33376 7.80706 0.0
-7.75722 6.27631 0.0
-7.60843 6.01369 0.0
40.1709 -6.17651 0.0
41.1941 -5.54802 0.0
39.2644 -0.823291 0.0
35.8747 -4.99161 0.0
36.8814 -7.08235 0.0
44.1035 -0.19805 0.0
42.9824 -5.14511 0.0
46.7934 -8.27533 0.0
49.0958 -5.01012 0.0
47.3644 30.9279 0.0
47.5948 31.2964 0.0
43.9278 35.182 0.0
42.632 34.9617 0.0
41.8353 32.2298 0.0
42.5657 31.0519 0.0
45.702 29.6104 0.0
9.86792 -14.4542 0.0
13.3519 -9.23984 0.0
12.3096 -7.58156 0.0
6.35659 -9.72677 0.0
8.84007 -13.0777 0.0
-22.9423 -47.0578 0.0
-20.1453 -50.8763 0.0
-16.7664 -46.8091 0.0
-20.0261 -43.723 0.0
-40.8289 33.7432 0.0
-40.8067 33.3006 0.0
-39.8524 32.7183 0.0
-35.6551 30.3138 0.0
-35.0124 30.6823 0.0
-31.846 34.3002 0.0
-42.2167 -9.23226 0.0
-39.986 -9.75344 0.0
-34.5384 -5.26791 0.0
-34.669 -5.09142 0.0
-42.743 -7.05354 0.0
-27.2179 -11.222 0.0
-32.645 -9.42703 0.0
-33.442 -10.4066 0.0
-33.2225 -14.6532 0.0
-32.3382 -15.283 0.0
-30.4079 -16.1438 0.0
-30.6983 45.0223 0.0
-31.6906 48.1449 0.0
-38.2412 45.2363 0.0
-37.0615 42.8637 0.0
-34.1005 43.3135 0.0
-31.8113 43.8165 0.0
-5.6002 -4.67473 0.0
-6.01252 -4.57781 0.0
-7.54944 -4.9658 0.0
-8.64058 -9.37747 0.0
-5.2643 -10.8021 0.0
-4.07945 -10.0979 0.0
51.6013 7.19965 0.0
51.2348 3.7631 0.0
56.7685 4.26674 0.0
57.4844 8.3825 0.0
56.6614 8.50652 0.0
52.796 8.17137 0.0
-48.3344 -19.0328 0.0
-46.7862 -21.5643 0.0
-45.5666 -21.5505 0.0
-41.4442 -17.5401 0.0
-42.663 -14.7986 0.0
-12.8089 32.3981 0.0
-12.4601 34.6974 0.0
-14.1041 35.983 0.0
-14.8978 36.5857 0.0
-16.4046 36.5984 0.0
-16.9007 36.5845 0.0
-18.4919 35.2474 0.0
-19.7794 31.923 0.0
-52.1233 27.5446 0.0
-54.7625 24.1063 0.0
-52.247 18.7474 0.0
-50.2132 25.6301 0.0
-51.722 27.4179 0.0
23.8207 -9.36191 0.0
27.6659 -8.77603 0.0
29.4474 -5.26131 0.0
27.1421 -2.73732 0.0
26.7015 -2.6297 0.0
22.7511 30.1394 0.0
25.7078 31.91 0.0
24.3577 34.8395 0.0
22.2653 35.462 0.0
17.7898 35.3145 0.0
-55.1966 9.50635 0.0
-54.7086 10.961 0.0
-58.1259 15.3323 0.0
-58.2086 12.2593 0.0
-57.989 8.71765 0.0
-57.0139 7.18354 0.0
-13.6324 10.3821 0.0
-12.2243 10.3183 0.0
-8.80567 16.0246 0.0
-9.00169 16.3876 0.0
-10.4175 16.5532 0.0
-12.4308 16.7087 0.0
-15.0625 12.7198 0.0
-15.1113 11.3998 0.0
18.7307 21.4808 0.0
19.7769 20.2259 0.0
25.1188 23.9711 0.0
24.7781 24.6614 0.0
21.5908 26.139 0.0
23.5775 13.897 0.0
26.1214 13.0002 0.0
28.4511 14.6467 0.0
28.8964 18.109 0.0
28.8527 18.8781 0.0
27.56 19.7242 0.0
26.924 19.5371 0.0
-35.8468 29.9012 0.0
-40.044 32.3056 0.0
-39.1904 25.5829 0.0
-37.6855 24.7554 0.0
-29.2598 13.5729 0.0
-31.2711 13.042 0.0
-31.8464 10.5641 0.0
-30.4268 8.74095 0.0
-24.9167 8.64546 0.0
-26.6281 20.3022 0.0
-27.5993 21.7153 0.0
-32.9245 18.0436 0.0
-32.7856 16.8259 0.0
-31.3522 13.7321 0.0
-29.3409 14.263 0.0
-29.1026 14.39 0.0
57.372 3.26276 0.0
56.1945 -1.22419 0.0
56.7739 -1.918 0.0
60.6131 -1.77648 0.0
61.4992 0.250074 0.0
62.0297 3.25179 0.0
42.6155 -12.1835 0.0
41.7188 -11.982 0.0
36.3681 -12.815 0.0
36.1761 -13.2345 0.0
35.6688 -16.0701 0.0
37.4918 -17.0676 0.0
18.0896 -34.4137 0.0
19.0064 -34.3045 0.0
25.1265 -29.6441 0.0
25.0289 -29.2234 0.0
24.7001 -28.8003 0.0
22.8613 -28.6573 0.0
17.6911 -31.6335 0.0
17.7705 -33.6905 0.0
-34.554 -1.25152 0.0
-31.5679 0.324316 0.0
-35.2096 6.69978 0.0
-37.4572 5.51147 0.0
-37.1366 0.306536 0.0
6.72985 27.0811 0.0
3.14752 28.613 0.0
2.05133 28.0494 0.0
-2.56849 24.3002 0.0
-1.18819 22.9805 0.0
-0.13741 23.2621 0.0
7.75321 17.3847 0.0
6.61286 17.6556 0.0
1.89365 12.029 0.0
2.16156 11.8489 0.0
5.61204 11.5575 0.0
7.5931 14.2349 0.0
8.215 16.2055 0.0
-46.9361 6.41641 0.0
-47.6707 7.67377 0.0
-54.67 9.05643 0.0
-56.4872 6.73362 0.0
-56.5009 6.51012 0.0
-56.488 6.30768 0.0
-51.3465 4.01301 0.0
-48.8381 3.85646 0.0
-48.4773 4.17757 0.0
-47.0281 6.06047 0.0
-20.156 -29.9912 0.0
-18.9782 -28.6 0.0
-20.4911 -21.4786 0.0
-20.9362 -21.0891 0.0
-21.6756 -21.0396 0.0
-23.8943 -23.7379 0.0
-24.6963 -24.9855 0.0
25.1136 38.0875 0.0
24.9727 38.5291 0.0
17.6824 39.6014 0.0
22.2692 35.8975 0.0
24.3616 35.275 0.0
25.0467 37.1236 0.0
-7.31064 28.6003 0.0
-6.71985 25.5199 0.0
-4.94882 24.5611 0.0
-4.32134 24.4953 0.0
-3.11493 24.3901 0.0
1.50489 28.1393 0.0
-2.96397 -45.2983 0.0
-0.480117 -43.825 0.0
1.31138 -42.2704 0.0
-3.95834 -37.3214 0.0
-4.66046 -37.5385 0.0
-4.49192 -44.8598 0.0
-4.26717 -45.0374 0.0
-39.0756 -18.8986 0.0
-41.1847 -17.7888 0.0
-45.3071 -21.7992 0.0
-42.7833 -24.429 0.0
53.8173 16.6232 0.0
53.3065 16.7543 0.0
49.172 10.5588 0.0
51.3422 7.76583 0.0
52.5369 8.73755 0.0
32.058 21.1164 0.0
34.8674 22.5391 0.0
32.4781 26.4852 0.0
28.66 25.428 0.0
-16.8979 -56.5364 0.0
-13.6938 -56.4658 0.0
-15.4573 -52.507 0.0
-19.3137 -52.8945 0.0
-19.7591 -54.0305 0.0
-18.1141 -55.7384 0.0
-23.3204 -47.4196 0.0
-25.5055 -46.9979 0.0
-27.3628 -51.0048 0.0
-26.4066 -52.0736 0.0
-23.2729 -54.0558 0.0
-20.4597 -53.6555 0.0
-20.0143 -52.5195 0.0
-20.5234 -51.2382 0.0
3.52479 55.9852 0.0
7.14195 58.8558 0.0
6.28275 59.4954 0.0
1.44299 59.9881 0.0
-0.731415 59.2941 0.0
-2.78727 57.5803 0.0
18.5142 -41.8538 0.0
13.4469 -44.5238 0.0
12.8145 -45.1088 0.0
15.0197 -49.9689 0.0
16.5206 -49.8082 0.0
-15.3106 -46.7582 0.0
-12.797 -48.8404 0.0
-9.15926 -45.4549 0.0
-8.8448 -44.9581 0.0
-9.94852 -43.6743 0.0
-13.2805 -42.1135 0.0
-34.7857 37.2993 0.0
-30.9743 36.6477 0.0
-30.8026 40.757 0.0
-31.6563 43.2765 0.0
-33.9456 42.7736 0.0
20.7678 27.0008 0.0
20.6753 28.1944 0.0
14.766 31.5367 0.0
13.9474 31.228 0.0
10.4226 26.5275 0.0
10.5762 26.3367 0.0
15.986 26.5947 0.0
-9.40119 43.3731 0.0
-7.68849 43.3223 0.0
-3.76042 45.9364 0.0
-3.78147 46.5802 0.0
-9.87169 47.933 0.0
14.9245 -15.1993 0.0
15.7218 -10.6146 0.0
13.6829 -9.46818 0.0
10.199 -14.6825 0.0
10.1945 -15.0294 0.0
19.8077 9.06199 0.0
21.8384 5.4007 0.0
26.0964 9.18884 0.0
25.8461 10.9095 0.0
-34.6527 -3.60579 0.0
-34.8481 -1.70533 0.0
-37.4307 -0.147278 0.0
-40.4443 -1.15989 0.0
-42.0232 -3.18205 0.0
5.10487 -37.8603 0.0
5.51479 -37.4264 0.0
4.03017 -32.4417 0.0
-0.329782 -33.6554 0.0
-1.12884 -34.7482 0.0
-1.14257 -34.9115 0.0
-12.0339 32.5186 0.0
-11.7263 31.5955 0.0
-3.69927 36.677 0.0
-3.35112 37.2408 0.0
-6.20125 38.2463 0.0
-11.6852 34.8179 0.0
-17.7637 15.7152 0.0
-18.8262 18.3607 0.0
-19.4121 19.2831 0.0
-20.4777 19.2268 0.0
-22.0579 17.8351 0.0
-23.2028 14.4763 0.0
-22.2165 12.5258 0.0
-16.9717 56.5363 0.0
-21.5203 57.0563 0.0
-22.8661 52.5761 0.0
-22.1565 52.2082 0.0
-17.8867 53.7165 0.0
14.6396 8.81231 0.0
16.9994 11.4076 0.0
15.1136 13.7487 0.0
14.5836 14.2135 0.0
8.93847 16.0485 0.0
8.31657 14.0779 0.0
0.751677 -48.8412 0.0
1.28823 -52.1889 0.0
7.60699 -48.2437 0.0
7.90071 -47.5878 0.0
7.96101 -46.4261 0.0
6.81205 -46.5853 0.0
11.0365 -2.94529 0.0
6.30208 -1.5484 0.0
5.10525 -5.38432 0.0
5.13745 -7.57126 0.0
14.8121 -2.14106 0.0
18.9237 -4.7372 0.0
19.242 0.874874 0.0
18.3631 1.00658 0.0
16.4731 0.954511 0.0
20.4899 -10.1927 0.0
22.8608 -9.70816 0.0
23.4452 -9.36117 0.0
26.326 -2.62896 0.0
26.0291 -2.41505 0.0
23.6951 -2.67537 0.0
20.9895 -6.19924 0.0
20.7796 -6.8779 0.0
20.0351 -9.72298 0.0
24.7457 38.8315 0.0
24.5546 39.4906 0.0
22.4018 41.4916 0.0
16.4944 42.4002 0.0
15.4661 41.5085 0.0
17.4555 39.9038 0.0
13.4896 -43.9481 0.0
18.5569 -41.278 0.0
19.5194 -40.4487 0.0
17.3775 -36.6784 0.0
13.9248 -38.794 0.0
-1.24395 13.4013 0.0
-2.03105 14.248 0.0
-3.12287 14.6296 0.0
-4.97877 14.0123 0.0
-8.76646 8.945 0.0
-8.41714 8.02157 0.0
38.7525 42.1295 0.0
36.1356 38.2076 0.0
41.8735 36.589 0.0
41.3879 40.5771 0.0
39.9796 41.584 0.0
-20.5677 -2.29521 0.0
-20.3207 -1.72784 0.0
-20.9582 -0.135663 0.0
-23.7354 3.07401 0.0
-28.5341 1.3034 0.0
-29.1078 0.260503 0.0
-27.4884 -1.37472 0.0
-3.24297 2.78135 0.0
-4.595 2.66721 0.0
-5.69084 -3.88968 0.0
-5.27852 -3.9866 0.0
-1.97221 -4.22796 0.0
-0.853524 -2.295 0.0
-0.358983 -0.555035 0.0
-2.19875 2.20413 0.0
17.5844 10.7113 0.0
17.39 10.7267 0.0
15.0302 8.13143 0.0
14.6051 7.11769 0.0
16.0864 2.34388 0.0
16.3958 1.68867 0.0
18.2859 1.74075 0.0
-14.3676 37.1919 0.0
-13.5739 36.5892 0.0
-7.23808 41.318 0.0
-8.01673 42.7711 0.0
-9.72943 42.8219 0.0
-10.2609 42.7518 0.0
-15.1202 -32.6519 0.0
-11.8323 -28.1835 0.0
-13.7127 -26.8644 0.0
-17.2503 -28.5354 0.0
30.0895 47.2443 0.0
25.7443 44.6049 0.0
29.7751 41.4996 0.0
29.9225 41.5688 0.0
31.1729 45.7601 0.0
-12.5729 29.7542 0.0
-15.8566 27.2441 0.0
-15.4446 24.2395 0.0
-12.3802 23.2318 0.0
-11.4382 23.8539 0.0
27.6403 -2.29078 0.0
29.9456 -4.81477 0.0
33.7252 -4.22448 0.0
34.1394 -4.08156 0.0
34.5271 2.36195 0.0
8.35273 -47.8827 0.0
8.05901 -48.5386 0.0
5.53762 -54.5448 0.0
5.9679 -54.876 0.0
11.6972 -53.0884 0.0
11.9042 -52.76 0.0
-7.32049 43.0665 0.0
-6.54183 41.6134 0.0
-6.03175 40.7545 0.0
0.53687 42.703 0.0
0.517079 43.0413 0.0
-3.39242 45.6806 0.0
-22.3278 27.2871 0.0
-22.1398 26.5531 0.0
-20.4105 19.919 0.0
-19.345 19.9754 0.0
-17.3766 22.3994 0.0
-37.0979 -37.2819 0.0
-30.3236 -34.9489 0.0
-30.2819 -33.2496 0.0
-32.3234 -30.673 0.0
-35.6865 -31.1119 0.0
-35.8618 -31.7287 0.0
1.4681 42.459 0.0
8.44878 39.1187 0.0
6.55113 43.3809 0.0
3.72434 44.2425 0.0
1.38788 42.94 0.0
1.40767 42.6017 0.0
-0.118727 51.1823 0.0
2.85902 54.5534 0.0
3.24005 55.6025 0.0
-3.07201 57.1976 0.0
-3.56966 56.953 0.0
-2.52911 52.3736 0.0
-0.934531 51.032 0.0
47.2414 -9.6233 0.0
46.6531 -11.8997 0.0
49.3847 -17.3604 0.0
50.1384 -17.339 0.0
54.4034 -15.319 0.0
53.7659 -14.3933 0.0
-7.55541 -55.4393 0.0
-4.09766 -54.112 0.0
-2.92713 -46.6702 0.0
-3.22203 -46.2277 0.0
-4.52523 -45.9669 0.0
-7.84935 -54.8398 0.0
[...]
<CellData Scalars="cell variable 4" Vectors="cell vector">
<DataArray type="Float64" NumberOfComponents="3" Name="cell vector" format="ascii">
0 0 0
0 0 0
0 0 0
0 0 0
0 0 0
0 0 0
0 0 0
0 0 0
0 0 0
0 0 0
0 0 0
0 0 0
0 0 0
0 0 0
0 0 0
0 0 0
0 0 0
0 0 0
0 0 0
0 0 0
0 0 0
0 0 0
0 0 0
0 0 0
0 0 0
0 0 0
0 0 0
0 0 0
0 0 0
0 0 0
0 0 0
0 0 0
0 0 0
0 0 0
0 0 0
0 0 0
0 0 0
0 0 0
0 0 0
0 0 0
0 0 0
0 0 0
0 0 0
0 0 0
0 0 0
0 0 0
0 0 0
0 0 0
0 0 0
0 0 0
0 0 0
0 0 0
0 0 0
0 0 0
0 0 0
0 0 0
0 0 0
0 0 0
0 0 0
0 0 0
0 0 0
0 0 0
0 0 0
0 0 0
0 0 0
0 0 0
0 0 0
0 0 0
0 0 0
0 0 0
0 0 0
0 0 0
0 0 0
0 0 0
0 0 0
0 0 0
0 0 0
0 0 0
0 0 0
0 0 0
0 0 0
0 0 0
0 0 0
0 0 0
0 0 0
0 0 0
0 0 0
0 0 0
0 0 0
0 0 0
0 0 0
0 0 0
0 0 0
0 0 0
0 0 0
0 0 0
0 0 0
0 0 0
0 0 0
0 0 0
0 0 0
0 0 0
0 0 0
0 0 0
0 0 0
0 0 0
0 0 0
0 0 0
0 0 0
0 0 0
0 0 0
0 0 0
0 0 0
0 0 0
0 0 0
0 0 0
0 0 0
0 0 0
0 0 0
0 0 0
0 0 0
0 0 0
0 0 0
0 0 0
0 0 0
0 0 0
0 0 0
0 0 0
0 0 0
0 0 0
0 0 0
0 0 0
0 0 0
0 0 0
0 0 0
0 0 0
0 0 0
0 0 0
0 0 0
0 0 0
0 0 0
0 0 0
0 0 0
0 0 0
0 0 0
0 0 0
0 0 0
0 0 0
0 0 0
0 0 0
0 0 0
0 0 0
0 0 0
0 0 0
0 0 0
0 0 0
0 0 0
0 0 0
0 0 0
0 0 0
0 0 0
0 0 0
0 0 0
0 0 0
0 0 0
0 0 0
0 0 0
0 0 0
0 0 0
0 0 0
0 0 0
0 0 0
0 0 0
0 0 0
0 0 0
0 0 0
0 0 0
0 0 0
0 0 0
0 0 0
0 0 0
0 0 0
0 0 0
0 0 0
0 0 0
0 0 0
0 0 0
0 0 0
0 0 0
0 0 0
0 0 0
0 0 0
0 0 0
0 0 0
0 0 0
0 0 0
0 0 0
0 0 0
0 0 0
0 0 0
0 0 0
0 0 0
0 0 0
0 0 0
0 0 0
0 0 0
0 0 0
0 0 0
0 0 0
0 0 0
0 0 0
0 0 0
0 0 0
0 0 0
0 0 0
0 0 0
0 0 0
0 0 0
0 0 0
0 0 0
0 0 0
0 0 0
0 0 0
0 0 0
0 0 0
0 0 0
0 0 0
0 0 0
0 0 0
0 0 0
0 0 0
0 0 0
0 0 0
0 0 0
0 0 0
0 0 0
0 0 0
0 0 0
0 0 0
0 0 0
0 0 0
0 0 0
0 0 0
0 0 0
0 0 0
0 0 0
0 0 0
0 0 0
0 0 0
0 0 0
0 0 0
0 0 0
0 0 0
0 0 0
0 0 0
0 0 0
0 0 0
0 0 0
0 0 0
0 0 0
0 0 0
0 0 0
0 0 0
0 0 0
0 0 0
0 0 0
0 0 0
0 0 0
0 0 0
0 0 0
0 0 0
0 0 0
0 0 0
0 0 0
0 0 0
0 0 0
0 0 0
0 0 0
0 0 0
0 0 0
0 0 0
0 0 0
0 0 0
0 0 0
0 0 0
0 0 0
0 0 0
0 0 0
0 0 0
0 0 0
0 0 0
0 0 0
0 0 0
0 0 0
0 0 0
0 0 0
0 0 0
0 0 0
0 0 0
0 0 0
0 0 0
0 0 0
0 0 0
0 0 0
0 0 0
0 0 0
0 0 0
0 0 0
0 0 0
0 0 0
0 0 0
0 0 0
0 0 0
0 0 0
0 0 0
0 0 0
0 0 0
0 0 0
0 0 0
0 0 0
0 0 0
0 0 0
0 0 0
0 0 0
0 0 0
0 0 0
0 0 0
0 0 0
0 0 0
0 0 0
0 0 0
0 0 0
0 0 0
0 0 0
0 0 0
0 0 0
0 0 0
0 0 0
0 0 0
0 0 0
0 0 0
0 0 0
0 0 0
0 0 0
0 0 0
0 0 0
0 0 0
0 0 0
0 0 0
0 0 0
0 0 0
0 0 0
0 0 0
0 0 0
0 0 0
0 0 0
0 0 0
0 0 0
0 0 0
0 0 0
0 0 0
0 0 0
0 0 0
0 0 0
0 0 0
0 0 0
0 0 0
0 0 0
0 0 0
0 0 0
0 0 0
0 0 0
0 0 0
0 0 0
0 0 0
0 0 0
0 0 0
0 0 0
0 0 0
0 0 0
0 0 0
0 0 0
0 0 0
0 0 0
0 0 0
0 0 0
0 0 0
0 0 0
0 0 0
0 0 0
0 0 0
0 0 0
0 0 0
0 0 0
0 0 0
0 0 0
0 0 0
0 0 0
0 0 0
0 0 0
0 0 0
0 0 0
0 0 0
0 0 0
0 0 0
0 0 0
0 0 0
0 0 0
0 0 0
0 0 0
0 0 0
0 0 0
0 0 0
</DataArray>
<DataArray type="Float64" Name="cell vector length" format="ascii">
0 0 0 0 0 0 0 0 0 0 0 0 0 0 0 0 0 0 0 0 0 0 0 0 0 0 0 0 0 0 0 0 0 0 0 0 0 0 0 0 0 0 0 0 0 0 0 0 0 0 0 0 0 0 0 0 0 0 0 0 0 0 0 0 0 0 0 0 0 0 0 0 0 0 0 0 0 0 0 0 0 0 0 0 0 0 0 0 0 0 0 0 0 0 0 0 0 0 0 0 0 0 0 0 0 0 0 0 0 0 0 0 0 0 0 0 0 0 0 0 0 0 0 0 0 0 0 0 0 0 0 0 0 0 0 0 0 0 0 0 0 0 0 0 0 0 0 0 0 0 0 0 0 0 0 0 0 0 0 0 0 0 0 0 0 0 0 0 0 0 0 0 0 0 0 0 0 0 0 0 0 0 0 0 0 0 0 0 0 0 0 0 0 0 0 0 0 0 0 0 0 0 0 0 0 0 0 0 0 0 0 0 0 0 0 0 0 0 0 0 0 0 0 0 0 0 0 0 0 0 0 0 0 0 0 0 0 0 0 0 0 0 0 0 0 0 0 0 0 0 0 0 0 0 0 0 0 0 0 0 0 0 0 0 0 0 0 0 0 0 0 0 0 0 0 0 0 0 0 0 0 0 0 0 0 0 0 0 0 0 0 0 0 0 0 0 0 0 0 0 0 0 0 0 0 0 0 0 0 0 0 0 0 0 0 0 0 0 0 0 0 0 0 0 0 0 0 0 0 0 0 0 0 0 0 0 0 0 0 0 0 0 0 0 0 0 0 0 0 0 0 0 0 0 0 0 0 0 0 0 0 0 0 0 0 0 0 0 0 0 0 0 0 0 0 0 0 0 0 0 0 0 0 0 0 0 0 0 0 0 0 0 0 0 0 0 0 0 0 0 0 0 0 0 0 0 0 0 0 0 0 0 0 
</DataArray>
<DataArray type="Float64" Name="cell variable 4" format="ascii">
0.316217 0.000510187 6.16323e-05 1.07467 0.249242 0.0032488 5.60239e-07 0.94865 0.000319359 0.000137838 0.23011 0.479217 5.48914e-07 1.04461 1.14453e-06 0.000586701 0.334198 4.61276e-06 0.573608 0.161465 1.34433e-07 0.99432 0.511974 0.511974 0.000425284 0.495708 0.393381 1.14453e-06 0.0824302 0.163146 0.332003 0.626025 0.980966 3.42138e-05 0.437452 0.161465 0.36504 0.184973 0.00760007 4.69927e-06 0.252014 1.1995e-07 2.42345e-06 5.96913e-06 0.000160982 0.000319359 0.000137838 0.434405 0.000705084 0.657465 0.848855 0.23011 0.442722 0.33356 0.673042 1.19294e-07 1.06245 0.000237451 1.11547 0.912892 0.573608 0.161465 0.187543 1.07467 1.55471e-05 0.542818 1.12037 0.848855 0.130161 0.393247 4.18495e-05 0.503886 0.45141 0.000237451 0.0976075 0.371127 0.000116047 0.0505895 5.96913e-06 1.61534e-05 5.26566e-05 0.00103121 5.60239e-07 0.0032488 0.118662 7.29789e-07 0.0824302 1.10185 1.14226 0.371127 0.184973 0.708918 5.26566e-05 0.000160982 4.42555e-05 0.00273317 0.118662 1.1995e-07 1.38398e-06 6.13175e-07 0.503886 1.04461 1.68594e-06 0.313432 0.631062 0.919422 0.479217 5.76039e-06 0.434405 0.912892 0.542818 0.00370628 0.000157331 0.673042 3.49399e-07 8.33062e-06 2.42345e-06 6.16323e-05 0.000116047 0.789941 0.00403603 0.153908 0.399988 0.343308 0.393381 0.000425284 0.179448 0.573608 0.99432 0.000705084 0.514292 4.42555e-05 0.789941 0.000705084 0.66381 4.18495e-05 1.04772e-07 4.61276e-06 1.04461 0.0505895 2.34778e-08 1.00681 7.58754e-07 0.393247 0.187543 1.61534e-05 0.66381 6.97512e-07 0.32239 8.68069e-05 0.0773391 0.980966 0.00151096 0.919422 1.00681 7.29789e-07 0.23011 0.790107 0.542818 0.000237451 3.42138e-05 0.94865 0.848855 0.136507 1.1995e-07 0.763876 0.657465 1.68594e-06 7.29789e-07 0.36504 0.27464 0.184973 0.00403603 0.371127 0.163146 0.313432 1.00681 4.69927e-06 0.130161 0.0824302 1.12037 0.179448 0.00760007 0.000331293 0.00103121 1.89305e-07 0.657465 1.11547 0.313432 0.136507 1.23799e-05 1.68594e-06 1.07467 5.26566e-05 7.58754e-07 0.000209614 0.94865 0.0773391 1.5044e-05 1.89305e-07 0.790107 1.34433e-07 0.161465 1.55471e-05 0.631062 0.50937 0.45141 3.48316e-07 7.55742e-08 0.442722 0.514292 0.000157331 4.61276e-06 0.495708 0.0773391 0.153908 3.48316e-07 7.58754e-07 1.38398e-06 1.23799e-05 0.252014 0.316217 5.60239e-07 0.00145277 0.000306373 0.8063 0.000331293 0.332003 0.0978407 0.763876 4.42555e-05 0.90618 0.27464 0.187543 0.000510187 0.0646441 1.10185 1.14453e-06 0.00370628 0.631062 1.55471e-05 4.69927e-06 0.343308 0.32239 0.000306373 0.399988 0.90618 0.736473 2.24794e-07 0.0032488 0.00760007 0.393247 0.626025 0.36504 0.316217 0.763876 1.10185 3.09214e-07 0.0097703 0.000705084 0.32239 0.514292 0.184059 1.5044e-05 0.000209614 0.27464 0.0978407 0.0505895 0.437452 4.61276e-06 0.000319359 0.789941 0.136507 0.542818 7.29789e-07 0.000586701 0.136507 3.49399e-07 0.184973 0.0505895 0.187543 3.42138e-05 0.00370628 0.00103121 0.000116047 0.000157331 0.00760007 0.343308 0.50937 0.0097703 0.0505895 0.23011 0.00151096 0.0978407 3.09214e-07 0.0032488 0.000319359 2.24794e-07 0.66381 0.673042 0.912892 0.790107 1.68594e-06 0.179448 0.0646441 0.118662 0.000160982 0.00145277 0.000510187 1.61534e-05 0.631062 5.41779e-08 6.13175e-07 5.48914e-07 0.912892 0.153908 0.130161 1.11547 0.980966 5.48914e-07 0.0824302 0.32239 0.161465 0.399988 4.69927e-06 0.118662 0.153908 2.10901e-08 0.00103121 0.33356 0.163146 0.000137838 0.708918 5.26566e-05 0.626025 5.96913e-06 6.16323e-05 0.495708 0.36504 1.55471e-05 5.48914e-07 0.249242 0.000425284 3.42138e-05 0.000425284 7.58754e-07 1.97283e-08 0.848855 0.000510187 0.434405 0.657465 0.573608 0.919422 0.442722 0.399988 0.252014 0.000137838 0.8063 0.00273317 1.14226 0.000237451 0.343308 6.16323e-05 1.23799e-05 0.919422 0.763876 2.24794e-07 0.313432 0.789941 1.11547 5.76039e-06 0.442722 0.0773391 1.10185 5.96913e-06 0.790107 0.136507 0.184059 0.673042 0.00370628 0.66381 0.000160982 3.49399e-07 0.514292 0.0976075 0.00151096 0.252014 0.249242 1.14226 0.000157331 0.626025 1.04461 0.179448 1.61534e-05 0.334198 8.33062e-06 0.00151096 0.511974 1.06245 6.13175e-07 0.0505895 0.736473 5.76039e-06 5.76039e-06 0.511974 0.130161 0.23011 7.29789e-07 0.23011 8.33062e-06 0.371127 1.5044e-05 4.18495e-05 
</DataArray>
<DataArray type="Float64" Name="cell variable 5" format="ascii">
0.0909148 0.999974 1 0.00858434 0.138655 0.998946 1 0.0109898 0.99999 0.999998 0.158855 0.0417277 1 0.00908091 1 0.999966 0.082177 1 0.0294962 0.277231 1 0.0100133 0.0367488 0.0367488 0.999982 0.0391044 0.0606986 1 0.595425 0.273099 0.0831765 0.0248813 0.0102849 1 0.0496613 0.277231 0.0698059 0.226167 0.994257 1 0.136034 1 1 1 0.999997 0.99999 0.999998 0.0503251 0.99995 0.0226112 0.0136882 0.158855 0.0485429 0.0824658 0.021599 1 0.00878122 0.999994 0.00797274 0.0118572 0.0294962 0.277231 0.221374 0.00858434 1 0.0328244 0.00790366 0.0136882 0.371169 0.0607373 1 0.037893 0.0467791 0.999994 0.512105 0.0676886 0.999999 0.796223 1 1 1 0.999894 1 0.998946 0.415271 1 0.595425 0.00816951 0.00760594 0.0676886 0.226167 0.0195097 1 0.999997 1 0.999254 0.415271 1 1 1 0.037893 0.00908091 1 0.0923878 0.0244954 0.0116913 0.0417277 1 0.0503251 0.0118572 0.0328244 0.998628 0.999998 0.021599 1 1 1 1 0.999999 0.0157727 0.998374 0.296844 0.0588268 0.0782104 0.0606986 0.999982 0.236958 0.0294962 0.0100133 0.99995 0.0364304 1 0.0157727 0.99995 0.0221905 1 1 1 0.00908091 0.796223 1 0.00976872 1 0.0607373 0.221374 1 0.0221905 1 0.0877689 0.999999 0.62573 0.0102849 0.999772 0.0116913 0.00976872 1 0.158855 0.0157662 0.0328244 0.999994 1 0.0109898 0.0136882 0.349234 1 0.016849 0.0226112 1 1 0.0698059 0.117059 0.226167 0.998374 0.0676886 0.273099 0.0923878 0.00976872 1 0.371169 0.595425 0.00790366 0.236958 0.994257 0.999989 0.999894 1 0.0226112 0.00797274 0.0923878 0.349234 1 1 0.00858434 1 1 0.999996 0.0109898 0.62573 1 1 0.0157662 1 0.277231 1 0.0244954 0.0371116 0.0467791 1 1 0.0485429 0.0364304 0.999998 1 0.0391044 0.62573 0.296844 1 1 1 1 0.136034 0.0909148 1 0.999789 0.999991 0.0151488 0.999989 0.0831765 0.510913 0.016849 1 0.0120314 0.117059 0.221374 0.999974 0.705275 0.00816951 1 0.998628 0.0244954 1 1 0.0782104 0.0877689 0.999991 0.0588268 0.0120314 0.0181031 1 0.998946 0.994257 0.0607373 0.0248813 0.0698059 0.0909148 0.016849 0.00816951 1 0.990544 0.99995 0.0877689 0.0364304 0.227907 1 0.999996 0.117059 0.510913 0.796223 0.0496613 1 0.99999 0.0157727 0.349234 0.0328244 1 0.999966 0.349234 1 0.226167 0.796223 0.221374 1 0.998628 0.999894 0.999999 0.999998 0.994257 0.0782104 0.0371116 0.990544 0.796223 0.158855 0.999772 0.510913 1 0.998946 0.99999 1 0.0221905 0.021599 0.0118572 0.0157662 1 0.236958 0.705275 0.415271 0.999997 0.999789 0.999974 1 0.0244954 1 1 1 0.0118572 0.296844 0.371169 0.00797274 0.0102849 1 0.595425 0.0877689 0.277231 0.0588268 1 0.415271 0.296844 1 0.999894 0.0824658 0.273099 0.999998 0.0195097 1 0.0248813 1 1 0.0391044 0.0698059 1 1 0.138655 0.999982 1 0.999982 1 1 0.0136882 0.999974 0.0503251 0.0226112 0.0294962 0.0116913 0.0485429 0.0588268 0.136034 0.999998 0.0151488 0.999254 0.00760594 0.999994 0.0782104 1 1 0.0116913 0.016849 1 0.0923878 0.0157727 0.00797274 1 0.0485429 0.62573 0.00816951 1 0.0157662 0.349234 0.227907 0.021599 0.998628 0.0221905 0.999997 1 0.0364304 0.512105 0.999772 0.136034 0.138655 0.00760594 0.999998 0.0248813 0.00908091 0.236958 1 0.082177 1 0.999772 0.0367488 0.00878122 1 0.796223 0.0181031 1 1 0.0367488 0.371169 0.158855 1 0.158855 1 0.0676886 1 1 
</DataArray>
<DataArray type="Float64" Name="cell variable 6" format="ascii">
0.0038835 1.00883 1.00913 5.3719e-06 0.0566856 1.00681 1.00917 1.10661e-05 1.00896 1.00908 0.0671729 0.00051123 1.00917 6.33494e-06 1.00917 1.00878 0.00576492 1.00917 0.000187165 0.298329 1.00917 8.43313e-06 0.00035504 0.00035504 1.00889 0.000410215 0.00151522 1.00917 0.752638 0.294057 0.00364689 0.000115922 9.11938e-06 1.00915 0.000885689 0.298329 0.0019794 0.208208 1.00277 1.00917 0.0441278 1.00917 1.00917 1.00917 1.00907 1.00896 1.00908 0.000857904 1.0087 8.84138e-05 2.09522e-05 0.0671729 0.000858618 0.00403961 7.76673e-05 1.00917 5.74138e-06 1.00902 4.32387e-06 1.38076e-05 0.000187165 0.298329 0.185318 5.3719e-06 1.00916 0.000251962 4.21468e-06 2.09522e-05 0.477444 0.00202135 1.00915 0.000380196 0.000696942 1.00902 0.67289 0.0019189 1.0091 0.900072 1.00917 1.00916 1.00914 1.00849 1.00917 1.00681 0.533485 1.00917 0.752638 4.64493e-06 3.76475e-06 0.0019189 0.208208 5.81379e-05 1.00914 1.00907 1.00914 1.00716 0.533485 1.00917 1.00917 1.00917 0.000380196 6.33494e-06 1.00917 0.00439847 0.000110922 1.32528e-05 0.00051123 1.00917 0.000857904 1.38076e-05 0.000251962 1.00642 1.00907 7.76673e-05 1.00917 1.00917 1.00917 1.00913 1.0091 3.156e-05 1.00605 0.3398 0.00127682 0.00310284 0.00151522 1.00889 0.235078 0.000187165 8.43313e-06 1.0087 0.000349016 1.00914 3.156e-05 1.0087 8.3838e-05 1.00915 1.00917 1.00917 6.33494e-06 0.900072 1.00917 7.8448e-06 1.00917 0.00202135 0.185318 1.00916 8.3838e-05 1.00917 0.00628005 1.00912 0.780596 9.11938e-06 1.00816 1.32528e-05 7.8448e-06 1.00917 0.0671729 3.15261e-05 0.000251962 1.00902 1.00915 1.10661e-05 2.09522e-05 0.432355 1.00917 3.81646e-05 8.84138e-05 1.00917 1.00917 0.0019794 0.02163 0.208208 1.00605 0.0019189 0.294057 0.00439847 7.8448e-06 1.00917 0.477444 0.752638 4.21468e-06 0.235078 1.00277 1.00895 1.00849 1.00917 8.84138e-05 4.32387e-06 0.00439847 0.432355 1.00917 1.00917 5.3719e-06 1.00914 1.00917 1.00904 1.10661e-05 0.780596 1.00916 1.00917 3.15261e-05 1.00917 0.298329 1.00916 0.000110922 0.000394946 0.000696942 1.00917 1.00917 0.000858618 0.000349016 1.00907 1.00917 0.000410215 0.780596 0.3398 1.00917 1.00917 1.00917 1.00917 0.0441278 0.0038835 1.00917 1.00814 1.00897 2.80904e-05 1.00895 0.00364689 0.674122 3.81646e-05 1.00914 1.4406e-05 0.02163 0.185318 1.00883 0.841792 4.64493e-06 1.00917 1.00642 0.000110922 1.00916 1.00917 0.00310284 0.00628005 1.00897 0.00127682 1.4406e-05 4.69278e-05 1.00917 1.00681 1.00277 0.00202135 0.000115922 0.0019794 0.0038835 3.81646e-05 4.64493e-06 1.00917 1.00014 1.0087 0.00628005 0.000349016 0.235443 1.00916 1.00904 0.02163 0.674122 0.900072 0.000885689 1.00917 1.00896 3.156e-05 0.432355 0.000251962 1.00917 1.00878 0.432355 1.00917 0.208208 0.900072 0.185318 1.00915 1.00642 1.00849 1.0091 1.00907 1.00277 0.00310284 0.000394946 1.00014 0.900072 0.0671729 1.00816 0.674122 1.00917 1.00681 1.00896 1.00917 8.3838e-05 7.76673e-05 1.38076e-05 3.15261e-05 1.00917 0.235078 0.841792 0.533485 1.00907 1.00814 1.00883 1.00916 0.000110922 1.00917 1.00917 1.00917 1.38076e-05 0.3398 0.477444 4.32387e-06 9.11938e-06 1.00917 0.752638 0.00628005 0.298329 0.00127682 1.00917 0.533485 0.3398 1.00917 1.00849 0.00403961 0.294057 1.00908 5.81379e-05 1.00914 0.000115922 1.00917 1.00913 0.000410215 0.0019794 1.00916 1.00917 0.0566856 1.00889 1.00915 1.00889 1.00917 1.00917 2.09522e-05 1.00883 0.000857904 8.84138e-05 0.000187165 1.32528e-05 0.000858618 0.00127682 0.0441278 1.00908 2.80904e-05 1.00716 3.76475e-06 1.00902 0.00310284 1.00913 1.00917 1.32528e-05 3.81646e-05 1.00917 0.00439847 3.156e-05 4.32387e-06 1.00917 0.000858618 0.780596 4.64493e-06 1.00917 3.15261e-05 0.432355 0.235443 7.76673e-05 1.00642 8.3838e-05 1.00907 1.00917 0.000349016 0.67289 1.00816 0.0441278 0.0566856 3.76475e-06 1.00907 0.000115922 6.33494e-06 0.235078 1.00916 0.00576492 1.00917 1.00816 0.00035504 5.74138e-06 1.00917 0.900072 4.69278e-05 1.00917 1.00917 0.00035504 0.477444 0.0671729 1.00917 0.0671729 1.00917 0.0019189 1.00916 1.00915 
</DataArray>
<DataArray type="Float64" Name="cell variable 7" format="ascii">
0.357275 0.805214 0.804393 0.0863829 0.413855 0.731648 0.910934 0.109939 0.786592 0.818915 0.46057 0.24144 0.895885 0.091923 0.908704 0.789622 0.334908 0.89681 0.203114 0.543895 0.953353 0.10127 0.2268 0.2268 0.777768 0.233945 0.290041 0.908704 0.652741 0.531783 0.340125 0.185875 0.103782 0.881455 0.262734 0.543895 0.311423 0.488241 0.695937 0.865788 0.422896 0.91048 0.886845 0.876672 0.804465 0.786592 0.818915 0.264653 0.790771 0.176526 0.129973 0.46057 0.259721 0.337987 0.172124 0.924335 0.0886341 0.815305 0.0788486 0.116913 0.203114 0.543895 0.511928 0.0863829 0.87201 0.214434 0.0779382 0.129973 0.557964 0.288948 0.828165 0.230311 0.255368 0.815305 0.58928 0.306453 0.821805 0.667622 0.876672 0.855098 0.808066 0.74517 0.910934 0.731648 0.633332 0.91184 0.652741 0.0813708 0.0738515 0.306453 0.488241 0.162493 0.808066 0.804465 0.85435 0.786302 0.633332 0.91048 0.900885 0.926956 0.230311 0.091923 0.922196 0.360012 0.184332 0.115625 0.24144 0.912087 0.264653 0.116913 0.214434 0.736426 0.802201 0.172124 0.887905 0.869271 0.886845 0.804393 0.821805 0.142859 0.781706 0.544906 0.285858 0.329428 0.290041 0.777768 0.481302 0.203114 0.10127 0.790771 0.225806 0.85435 0.142859 0.790771 0.174715 0.828165 0.926865 0.89681 0.091923 0.667622 0.922008 0.0989326 0.900971 0.288948 0.511928 0.855098 0.174715 0.921346 0.347352 0.812727 0.646851 0.103782 0.723507 0.115625 0.0989326 0.91184 0.46057 0.142821 0.214434 0.815305 0.881455 0.109939 0.129973 0.58017 0.91048 0.148901 0.176526 0.922196 0.91184 0.311423 0.399197 0.488241 0.781706 0.306453 0.531783 0.360012 0.0989326 0.865788 0.557964 0.652741 0.0779382 0.481302 0.695937 0.823381 0.74517 0.938631 0.176526 0.0788486 0.360012 0.58017 0.864126 0.922196 0.0863829 0.808066 0.900971 0.803638 0.109939 0.646851 0.867885 0.938631 0.142821 0.953353 0.543895 0.87201 0.184332 0.227704 0.255368 0.905229 0.926812 0.259721 0.225806 0.802201 0.89681 0.233945 0.646851 0.544906 0.905229 0.900971 0.900885 0.864126 0.422896 0.357275 0.910934 0.822606 0.774006 0.139181 0.823381 0.340125 0.570965 0.148901 0.85435 0.118245 0.399197 0.511928 0.805214 0.663687 0.0813708 0.908704 0.736426 0.184332 0.87201 0.865788 0.329428 0.347352 0.774006 0.285858 0.118245 0.15552 0.921969 0.731648 0.695937 0.288948 0.185875 0.311423 0.357275 0.148901 0.0813708 0.914119 0.724735 0.790771 0.347352 0.225806 0.426674 0.867885 0.803638 0.399197 0.570965 0.667622 0.262734 0.89681 0.786592 0.142859 0.58017 0.214434 0.91184 0.789622 0.58017 0.887905 0.488241 0.667622 0.511928 0.881455 0.736426 0.74517 0.821805 0.802201 0.695937 0.329428 0.227704 0.724735 0.667622 0.46057 0.723507 0.570965 0.914119 0.731648 0.786592 0.921969 0.174715 0.172124 0.116913 0.142821 0.922196 0.481302 0.663687 0.633332 0.804465 0.822606 0.805214 0.855098 0.184332 0.955764 0.926956 0.895885 0.116913 0.544906 0.557964 0.0788486 0.103782 0.895885 0.652741 0.347352 0.543895 0.285858 0.865788 0.633332 0.544906 0.945385 0.74517 0.337987 0.531783 0.818915 0.162493 0.808066 0.185875 0.876672 0.804393 0.233945 0.311423 0.87201 0.895885 0.413855 0.777768 0.881455 0.777768 0.900971 0.947968 0.129973 0.805214 0.264653 0.176526 0.203114 0.115625 0.259721 0.285858 0.422896 0.818915 0.139181 0.786302 0.0738515 0.815305 0.329428 0.804393 0.864126 0.115625 0.148901 0.921969 0.360012 0.142859 0.0788486 0.912087 0.259721 0.646851 0.0813708 0.876672 0.142821 0.58017 0.426674 0.172124 0.736426 0.174715 0.804465 0.887905 0.225806 0.58928 0.723507 0.422896 0.413855 0.0738515 0.802201 0.185875 0.091923 0.481302 0.855098 0.334908 0.869271 0.723507 0.2268 0.0886341 0.926956 0.667622 0.15552 0.912087 0.912087 0.2268 0.557964 0.46057 0.91184 0.46057 0.869271 0.306453 0.867885 0.828165 
</DataArray>
<DataArray type="Float64" Name="cell variable 8" format="ascii">