<VTKFile type="UnstructuredGrid" version="0.1">
<UnstructuredGrid>
<Piece  NumberOfPoints="    3312" NumberOfCells="    2432">
<Points>
<DataArray type="Float64" NumberOfComponents="3" format="ascii">
-30.1697 36.4441 0 
9.19856 8.6698 0 
53.245 -6.59272 0 
18.7835 -30.3113 0 
-28.811 50.9292 0 
-39.7217 18.3145 0 
9.03803 -45.503 0 
-59.0524 -13.1934 0 
0.0571938 -54.8692 0 
1.51951 -28.5404 0 
-59.8427 15.7397 0 
50.3941 -23.9483 0 
-15.0939 43.5329 0 
50.8235 -31.8501 0 
14.6057 14.408 0 
-11.2998 -44.9456 0 
-22.048 19.309 0 
-53.1254 32.7267 0 
-31.4052 -40.5752 0 
33.5075 -20.1298 0 
-4.34412 29.6062 0 
42.5596 -22.6952 0 
28.6952 -0.75047 0 
6.04607 0.604185 0 
1.14212 -33.0559 0 
58.1562 -10.8595 0 
-27.6296 -34.4797 0 
-44.9281 35.6127 0 
-59.6878 16.4965 0 
-61.5189 -10.1151 0 
28.3217 53.1799 0 
47.4485 24.3116 0 
-23.1945 34.9742 0 
-31.1023 -2.13415 0 
-30.4016 -15.1484 0 
-12.7333 -44.6335 0 
-14.6302 37.9579 0 
-9.69973 53.3861 0 
-6.49904 4.54531 0 
11.4624 -49.8968 0 
41.7654 37.3648 0 
-53.2355 -3.96517 0 
-0.290838 -10.9459 0 
51.9876 16.8981 0 
18.9494 51.8661 0 
-29.234 44.4534 0 
-13.4795 -0.995804 0 
-29.4336 35.2887 0 
6.12943 22.6683 0 
-4.6681 -46.1029 0 
42.9583 -37.7486 0 
-0.863203 -33.3172 0 
-26.9916 -9.89654 0 
21.388 2.04166 0 
-27.059 -25.6258 0 
-46.792 7.4338 0 
-10.8053 -55.9169 0 
40.1021 -43.3774 0 
14.5455 -28.8516 0 
18.5294 58.0743 0 
-28.2748 35.2308 0 
-37.4874 0.490031 0 
-5.52438 -46.416 0 
44.3561 -28.4465 0 
53.4036 10.3495 0 
-14.36 -35.6261 0 
26.1062 33.3424 0 
-25.6477 -40.2395 0 
25.6749 -18.826 0 
-34.7419 43.5787 0 
15.7508 -4.17523 0 
-18.5921 39.8028 0 
44.6697 -45.8752 0 
37.6642 -14.1121 0 
19.5278 2.75351 0 
-51.3135 -22.1525 0 
26.4791 -29.1369 0 
-34.2626 -34.7534 0 
28.1863 -50.3213 0 
-12.223 53.7133 0 
-36.7246 0.0691562 0 
32.9858 -41.9028 0 
-10.9521 -11.4493 0 
-14.9582 -45.7169 0 
57.9181 28.5042 0 
0.373429 28.4504 0 
32.9463 11.4677 0 
-0.873638 62.3426 0 
-50.3382 9.75608 0 
-40.7667 -10.354 0 
2.12522 -52.3936 0 
-31.2034 -30.8888 0 
25.9574 35.1244 0 
7.46418 13.8444 0 
32.0584 -42.6593 0 
25.3209 23.4575 0 
32.9717 -2.51247 0 
-23.6902 44.102 0 
42.1265 18.755 0 
12.5222 -38.5735 0 
-45.8558 -37.5842 0 
-55.209 23.7254 0 
54.6245 13.9361 0 
-16.8142 -4.84241 0 
35.1802 -3.96518 0 
-15.4556 -0.963202 0 
-19.0433 -40.9029 0 
34.0605 -2.93986 0 
19.0436 -33.9066 0 
-58.8657 9.82242 0 
7.58874 -46.3569 0 
-19.0961 13.7128 0 
-41.4524 31.8242 0 
27.2134 44.8184 0 
53.3787 -22.0502 0 
39.7809 -45.484 0 
-35.0469 -32.0475 0 
8.10616 -27.2387 0 
-5.81986 -25.2544 0 
42.7123 -5.53526 0 
34.4003 8.29971 0 
7.58431 -0.910323 0 
-27.2295 13.6477 0 
-0.461578 13.819 0 
27.2507 -31.4315 0 
-38.3482 -39.6557 0 
-17.1898 -23.5228 0 
19.8083 12.177 0 
-47.9656 -17.064 0 
-24.3549 -54.0677 0 
23.6978 -43.1484 0 
-24.8312 -2.06385 0 
-48.8915 -35.6348 0 
-13.9113 -20.2322 0 
41.6838 -24.2971 0 
-52.4796 -19.1309 0 
36.9985 -6.43329 0 
38.1338 -31.8254 0 
-53.5731 -9.01738 0 
-29.663 50.452 0 
-59.6679 4.35681 0 
47.2611 -21.5035 0 
12.7913 25.7611 0 
-6.25033 18.381 0 
-36.8654 7.86312 0 
3.60604 35.9949 0 
21.6642 43.9491 0 
25.8665 -29.0245 0 
47.5356 25.3506 0 
14.7373 47.1778 0 
59.2871 -3.49349 0 
44.7662 13.7522 0 
-30.306 -2.53807 0 
-25.3831 51.6611 0 
31.6739 -37.0562 0 
24.6107 40.4075 0 
9.71383 21.6239 0 
21.7915 13.8903 0 
-27.3842 23.1193 0 
8.98719 40.0084 0 
-25.0542 -4.22617 0 
-14.6065 -16.3913 0 
-36.4562 -19.4314 0 
15.7483 -33.8752 0 
39.594 11.1021 0 
25.0745 -8.18587 0 
27.6917 37.3792 0 
19.2114 -20.312 0 
-4.26872 58.4252 0 
-19.2098 -28.3074 0 
29.3139 8.41666 0 
-16.9449 60.3847 0 
-38.7752 16.4719 0 
58.3357 14.553 0 
6.47646 -9.45606 0 
-32.6611 44.4965 0 
-15.4895 28.6393 0 
-30.3516 3.86977 0 
26.4856 32.8209 0 
15.8288 -9.27321 0 
10.0901 59.208 0 
-46.1038 -22.8703 0 
-51.4026 24.9918 0 
-3.51491 -56.9013 0 
-12.5117 21.3778 0 
51.2837 -31.0317 0 
-41.1217 11.2274 0 
12.2153 32.9112 0 
11.2237 -10.8975 0 
-31.0323 -14.2657 0 
55.0661 -0.0540937 0 
-59.288 16.9392 0 
-45.0017 15.7985 0 
-43.5159 -4.89686 0 
-29.7257 5.9843 0 
33.9128 -20.4835 0 
6.40453 13.6306 0 
-21.3399 11.5453 0 
3.68416 6.51326 0 
-19.2579 46.2304 0 
50.4349 -28.4388 0 
33.3703 -2.89022 0 
-16.7095 12.4851 0 
-24.6353 51.3974 0 
-14.5857 -35.5763 0 
-1.36597 16.5838 0 
28.3725 -28.1302 0 
-15.562 40.1492 0 
-2.06587 -5.70699 0 
-41.39 20.5573 0 
-53.2645 2.81344 0 
58.018 14.3247 0 
-10.3238 30.4673 0 
1.20871 53.4373 0 
7.17026 28.1424 0 
-25.1954 -51.6684 0 
-36.5476 31.5786 0 
-4.37413 45.3684 0 
42.6792 -1.2903 0 
-5.3547 29.4467 0 
-15.3934 21.4588 0 
-29.8009 4.29432 0 
-9.28884 42.5001 0 
32.2627 22.6572 0 
13.5479 27.8765 0 
20.4636 -36.0048 0 
14.8531 -55.9319 0 
-4.39154 57.2157 0 
46.5013 -36.2011 0 
43.8281 -46.1262 0 
-57.6899 -26.5331 0 
18.1514 -2.64198 0 
-33.5568 25.9175 0 
-3.07737 -57.4824 0 
-60.3797 -22.9631 0 
22.3108 -43.4204 0 
-53.3984 -13.8519 0 
-9.63319 7.18871 0 
-27.0891 12.6266 0 
-23.1789 -18.8733 0 
-42.9233 -6.61242 0 
-2.09985 23.7453 0 
-20.9417 -7.7041 0 
-43.2547 -2.08595 0 
24.7828 -12.4746 0 
-35.8813 17.2069 0 
2.07296 14.2442 0 
-5.6724 -24.0745 0 
-10.6116 20.3193 0 
13.9161 55.0637 0 
-11.2291 -49.6921 0 
18.7818 -22.673 0 
-40.2149 -20.1422 0 
29.7157 -11.881 0 
7.72985 -22.5884 0 
40.0418 -42.6154 0 
-33.016 -7.1456 0 
11.2276 -34.2128 0 
29.5172 -2.37393 0 
16.3156 -55.0352 0 
-23.3167 -35.7606 0 
-40.7992 -29.7313 0 
-29.1266 18.059 0 
44.3216 -36.5866 0 
3.50956 -18.3115 0 
50.4765 34.6936 0 
-10.3257 9.94332 0 
0.44774 47.4288 0 
13.6124 -45.1494 0 
30.6996 -15.5274 0 
-14.2095 29.6928 0 
-18.9059 -28.9505 0 
-27.0423 -42.0162 0 
44.7329 22.6677 0 
17.6507 10.2109 0 
32.724 32.4836 0 
58.8761 17.8471 0 
-27.8012 22.8434 0 
-21.1224 -43.8673 0 
-6.59669 -5.33552 0 
11.1979 40.7419 0 
-39.0934 0.423005 0 
-11.6121 45.5521 0 
40.148 36.1972 0 
0.231541 -50.1096 0 
32.905 38.9784 0 
-8.35294 42.9751 0 
-38.1477 44.7009 0 
15.6512 -38.5075 0 
43.5099 6.6336 0 
-33.6327 -14.517 0 
-5.19386 -27.3995 0 
-3.42117 18.8861 0 
-56.2704 -27.2299 0 
52.4876 7.19627 0 
45.874 -9.12193 0 
-11.6555 -28.9341 0 
-1.03834 27.5458 0 
-61.3738 -20.3262 0 
-5.83165 -30.8184 0 
10.7719 48.803 0 
7.92805 21.8657 0 
56.9837 -14.6519 0 
-7.5722 48.1084 0 
4.26774 45.0555 0 
-50.5848 22.5353 0 
8.55361 33.7818 0 
1.71023 14.545 0 
36.2307 23.8968 0 
23.1363 26.4536 0 
2.52501 39.2242 0 
-9.75375 36.633 0 
-46.5145 3.99988 0 
-44.7622 -38.3667 0 
15.7945 -5.11914 0 
-48.0124 0.104261 0 
-17.5667 13.0127 0 
-5.91819 -14.0942 0 
-52.3355 25.1036 0 
37.528 -36.5774 0 
25.1176 -23.1114 0 
31.3021 -6.88775 0 
-4.06454 43.0263 0 
24.1153 1.72874 0 
48.1944 33.6526 0 
-37.2629 36.234 0 
58.1197 -11.4605 0 
6.93612 -22.3273 0 
-39.6053 43.0536 0 
-25.7379 0.340439 0 
17.1021 -11.767 0 
-37.7632 -31.6971 0 
-40.1652 -31.1514 0 
-25.4034 -26.3365 0 
18.9738 26.9151 0 
18.5864 -19.2561 0 
-47.7426 -32.0223 0 
-46.6027 29.4502 0 
-43.1494 -6.33652 0 
-19.4636 16.1711 0 
-43.1293 27.281 0 
-30.4124 -28.994 0 
21.2729 -39.266 0 
43.8168 7.01773 0 
42.3874 30.2568 0 
-18.3986 55.4086 0 
-1.95735 18.0819 0 
-54.8072 -6.95131 0 
-9.26302 5.7529 0 
-19.6972 -49.3154 0 
-30.3485 34.3474 0 
-13.7834 -35.7818 0 
-15.6753 5.5818 0 
25.8341 -50.8652 0 
6.8567 -11.7076 0 
-19.8634 33.9896 0 
-41.5376 22.5004 0 
38.7714 -31.8052 0 
-45.7708 13.5001 0 
-38.039 44.2138 0 
50.6967 -26.4433 0 
-8.5145 -44.9887 0 
-43.2753 37.9301 0 
-20.0051 6.46991 0 
-37.4792 -43.662 0 
44.0129 40.6048 0 
-8.9035 35.7257 0 
43.4876 28.2418 0 
50.1701 17.9538 0 
0.316479 -0.610354 0 
-1.49596 -19.3286 0 
-19.2661 -46.7146 0 
-60.5582 -1.5346 0 
20.2299 53.2716 0 
3.17726 -18.9603 0 
-34.5898 -32.9834 0 
31.3612 -35.7119 0 
0.308833 -33.4591 0 
-10.9328 11.2285 0 
3.34802 -5.4075 0 
-57.8539 8.01328 0 
-25.3499 24.5459 0 
57.9329 5.96307 0 
9.08838 53.8902 0 
-14.8776 -52.7772 0 
-27.544 15.446 0 
36.6618 22.8461 0 
54.6878 20.8194 0 
-8.82244 31.2139 0 
-27.9339 34.0264 0 
51.9707 -14.5544 0 
-5.4131 3.71618 0 
8.40303 28.485 0 
49.4209 -1.29891 0 
16.1601 -8.15725 0 
-36.0185 1.89265 0 
-46.4354 -23.6475 0 
-30.0277 -18.4872 0 
-10.6885 30.2764 0 
41.2017 -40.6224 0 
34.9759 -25.2325 0 
-16.0007 -22.9291 0 
44.4563 -20.7167 0 
-49.3888 16.4088 0 
1.5869 -29.2863 0 
-46.7602 0.37677 0 
28.1557 37.533 0 
-22.1865 11.3817 0 
-5.63499 -37.7767 0 
10.6564 19.9638 0 
7.08808 60.5 0 
33.195 24.3422 0 
27.2552 17.5258 0 
-24.1838 17.8131 0 
-34.0507 -48.3904 0 
33.75 44.4143 0 
-5.96892 0.51039 0 
-0.502131 8.68117 0 
-41.6265 -7.52334 0 
35.0527 -30.823 0 
31.3585 49.1121 0 
18.8548 32.859 0 
-39.003 -31.9634 0 
58.4972 -25.7246 0 
40.6695 17.3649 0 
-59.5515 -13.4673 0 
-36.3822 -23.0873 0 
57.825 -12.581 0 
-34.0166 26.8678 0 
7.08059 13.5252 0 
16.8044 -26.7449 0 
31.4198 29.7142 0 
-39.898 12.7074 0 
60.3869 13.0287 0 
-19.5996 -0.885429 0 
-54.3694 -8.19051 0 
-40.2224 -37.7752 0 
5.82277 -6.52866 0 
-19.5493 29.9517 0 
38.6062 0.80897 0 
-10.9862 -17.4022 0 
46.1317 4.01249 0 
24.7083 -50.8245 0 
40.4604 7.67817 0 
-35.0861 31.8041 0 
-23.052 -19.5632 0 
-59.8857 -23.4014 0 
-24.3949 -22.1836 0 
-24.3712 50.3997 0 
34.8501 17.0387 0 
44.8193 -36.6679 0 
44.4029 -6.11027 0 
-20.2583 40.0283 0 
2.01199 35.1714 0 
-11.9034 -44.5622 0 
17.8331 -19.2006 0 
16.5809 -26.9592 0 
12.4316 -18.7216 0 
-12.4845 59.1321 0 
17.3537 9.25464 0 
-44.2077 37.4105 0 
-23.9777 -18.2451 0 
31.927 39.5122 0 
-21.671 28.2061 0 
-40.4156 12.3669 0 
11.2384 -21.6159 0 
-34.0539 43.5373 0 
30.8148 38.9776 0 
15.3632 -55.8675 0 
49.7589 18.5519 0 
-27.724 -10.1285 0 
7.00685 -47.0735 0 
13.9722 -24.1339 0 
28.8765 -49.32 0 
-12.2754 -53.9337 0 
-8.42342 -18.3364 0 
-0.630804 -19.9883 0 
35.4119 -24.4328 0 
14.0199 -15.8305 0 
3.50632 21.2682 0 
12.4548 32.5888 0 
-16.9805 45.6892 0 
12.3 -18.2341 0 
-9.35907 -5.4936 0 
10.1452 -43.919 0 
-7.14165 -5.02993 0 
-12.6609 -40.5732 0 
25.289 -7.11664 0 
4.67557 -12.3211 0 
-7.11228 -23.1608 0 
20.1869 1.91445 0 
32.1588 -38.0574 0 
-3.43533 29.5759 0 
[...]
<CellData Scalars="wall variable 0">
<DataArray type="Float64" Name="wall length" format="ascii">
0.841876 6.03727 1.78065 4.60322 5.39251 0.619971 5.94906 0.971331 5.69129 0.747571 11.3702 2.90019 6.82021 1.42856 1.01574 5.75081 2.2169 10.0636 1.92273 0.357697 9.82977 1.11681 1.38733 5.63804 3.72748 2.28028 2.68416 3.87828 2.08546 5.63161 4.35748 5.70663 0.742256 2.76764 4.66856 3.55419 0.410201 0.675779 7.17315 2.54263 5.52891 3.04641 4.68176 1.98331 5.41399 2.50333 4.92282 5.26912 3.51821 0.565913 2.43779 1.66022 2.56393 4.59598 2.65168 8.02247 0.268923 9.27288 2.64832 4.31332 1.49344 2.41502 2.47344 0.133959 7.11659 3.10945 1.18297 2.65168 1.36083 3.87751 0.690636 4.6315 0.4957 1.82742 1.17439 3.95987 4.19979 1.54585 6.27629 3.77644 0.432204 2.74349 5.13894 0.847132 0.344383 5.91676 3.31835 1.35719 6.30055 2.70141 0.690636 7.72402 0.766628 5.87395 1.46503 2.56283 2.72424 2.37835 1.16071 7.4267 2.85969 3.10349 5.87648 4.29339 4.42449 2.58468 1.26016 0.537411 3.77644 4.55053 1.0206 3.74698 2.53588 1.20515 1.90074 8.57072 0.259664 0.353052 0.457607 2.37811 1.67357 3.58342 1.18878 8.70415 0.161548 2.29826 5.4998 1.6074 1.32531 9.22642 1.88687 7.36816 0.899199 4.13453 6.10097 1.25557 4.04065 0.901948 1.84597 0.767149 1.7464 6.09605 5.29858 7.42269 1.91959 4.48997 1.61828 2.41703 3.01851 2.66928 6.05994 7.23287 0.912229 6.52582 0.766795 1.48048 2.2789 9.14119 0.516651 0.6667 5.02727 1.70261 4.3454 8.00023 1.05228 6.08511 0.554767 3.30065 2.38636 7.81251 4.43842 4.34229 2.41187 2.45438 0.946388 1.11005 1.56405 6.31126 3.04165 3.46478 3.91609 2.49441 1.43175 6.6356 0.816603 10.4561 0.837114 7.53523 0.542233 0.392003 3.41685 2.36506 1.4951 1.40325 1.94259 10.4561 1.41202 1.26553 7.13663 1.58884 0.568658 0.883987 3.95206 1.69202 4.30858 7.9106 0.566421 8.52833 6.45403 2.53588 2.24214 1.12957 0.685948 6.6356 5.83125 5.47153 2.20012 9.07681 0.174078 4.71803 3.55617 0.34796 1.60158 2.69483 6.30055 2.97604 1.09439 7.33613 1.22276 3.30065 5.16757 3.17432 7.25285 3.58342 1.91815 3.2828 4.4047 6.02985 5.06999 1.48048 1.02304 8.24333 4.17174 0.158564 10.9624 1.62222 3.94481 7.22591 2.45438 1.08864 4.95932 4.39013 2.63743 2.85335 3.08625 7.13663 5.91967 1.09155 4.51994 3.61259 5.45556 0.673062 1.97949 2.35835 1.80854 0.558482 5.02439 0.589121 10.637 0.739345 0.912563 0.657711 8.3618 1.64973 6.12863 5.05145 0.81595 5.42858 1.40629 2.00746 5.37544 0.751763 6.94201 5.01876 1.42856 3.7757 2.67425 4.41367 2.54263 0.404912 4.69521 0.653952 4.64791 2.36387 3.94667 0.205439 1.81275 6.98476 2.23811 3.46478 1.05618 2.54227 2.96668 8.40113 0.713845 5.8002 5.03308 1.56448 0.197474 4.55069 3.31181 5.69615 3.73818 3.34794 2.72424 1.15927 2.0136 6.1406 2.34485 3.27233 1.2788 1.23873 1.68802 6.53924 3.85704 1.92832 4.93198 0.685003 4.64815 4.39351 1.91192 2.12226 3.59957 0.850848 0.824971 8.85505 1.46736 2.23155 5.75948 3.40447 5.48602 4.5279 2.50084 8.3618 5.37926 6.341 1.04426 1.22727 0.970834 4.04436 4.55053 5.91676 3.08465 0.786403 2.83414 0.796084 0.800711 3.45838 6.77245 1.55931 3.00621 8.52833 3.76325 4.66945 2.18871 6.97114 1.321 1.33954 2.2806 7.14187 1.14158 10.0636 3.94667 5.19888 5.75948 2.66248 0.5785 5.57976 0.742256 4.37708 0.75306 2.02304 4.77605 2.71571 6.07841 0.257585 2.09116 3.76008 1.36587 1.60149 2.12226 9.98527 1.22727 10.1616 0.239677 1.16071 8.96613 1.88048 2.00746 0.630907 7.69145 0.857759 5.3079 2.68162 4.39564 5.23636 0.916347 5.45159 1.59224 0.405205 5.23757 4.55427 4.74687 3.39472 3.60733 1.32018 6.77407 1.26016 7.51888 3.73552 4.37315 4.97375 2.67959 1.21026 0.401708 1.43512 5.12941 6.43813 1.88048 1.14799 7.83816 0.403351 5.45864 5.37544 0.872373 7.61029 1.23873 3.54715 7.8108 3.07294 1.92832 1.63803 2.15599 2.72371 6.12125 4.61061 4.1165 5.22573 3.43595 3.12531 0.403351 0.184774 4.37315 1.47395 1.38873 2.54416 2.41958 5.61885 2.47344 5.61509 4.36811 4.99345 2.5454 2.43779 4.61016 0.718033 6.6889 2.25566 8.98183 2.0496 0.341666 6.0545 1.35706 6.90958 5.14746 5.13729 0.5785 4.35748 0.481734 5.98448 0.32496 1.81589 3.21066 1.69934 5.23905 2.67959 3.13665 4.21755 7.26898 0.400013 0.158564 2.41187 4.42789 3.51935 9.43924 1.66879 7.02961 0.936676 0.483631 3.46562 2.08546 1.30675 1.38733 0.419865 6.37155 0.630008 5.48602 0.657711 6.63105 2.71659 0.542233 3.47987 5.3206 7.89538 0.99816 7.8108 2.26907 3.39472 2.89331 3.78046 0.416038 4.03483 5.04562 4.71803 2.39791 2.19777 0.250658 3.20204 3.08154 2.92209 1.61575 8.98183 0.927455 5.83125 1.43175 2.73554 0.930157 8.78792 1.03351 0.605252 2.49547 4.04503 3.85467 5.87395 7.53503 0.375832 3.47987 7.53523 0.755448 6.99107 2.63155 0.29974 0.751763 5.45864 3.12531 2.74101 0.54236 7.26898 0.482851 4.99039 0.697597 4.60322 1.17439 5.01434 1.57415 1.38041 2.1831 6.74638 0.327759 8.15232 0.536504 0.581149 6.77407 2.95655 5.69129 6.63522 6.27052 1.34505 3.63635 0.619267 0.451035 3.49999 8.15232 4.17251 1.54585 0.65196 5.81235 0.62944 7.87039 3.72748 4.0271 4.63768 7.40594 0.942523 7.25285 1.55237 3.35738 4.99039 1.11981 2.86292 6.45618 2.42418 0.538512 0.831801 6.16989 2.47148 1.10199 0.75306 0.938984 4.65066 0.516606 6.64724 4.97577 6.1623 0.351439 2.86292 0.852753 2.06972 0.855245 0.646079 2.83458 0.782425 5.59092 2.86169 6.96162 5.42858 4.97289 0.510396 2.92341 6.10097 0.491918 0.739345 2.42463 7.9301 0.847132 2.03105 5.37926 2.24098 2.43011 6.61324 5.53412 4.66856 6.0043 4.49773 0.5736 8.89643 0.531116 6.07342 0.984059 0.841108 5.99464 3.79775 0.377319 7.91948 0.827238 4.15087 0.678464 2.36445 1.6074 3.36418 8.04349 1.96553 3.6733 2.72809 1.46503 3.85467 3.91613 3.78046 6.25114 5.13729 1.39923 0.279535 2.43011 2.76764 5.57976 5.07508 5.69298 0.646079 6.21871 3.20007 3.86258 0.257585 2.30405 4.25212 0.773954 5.43042 5.83901 1.50244 7.34842 4.08598 2.72685 2.9012 8.00023 0.947995 2.26177 6.11938 0.789228 6.77457 4.36927 0.610632 4.73409 3.65091 1.15697 0.350015 9.43924 2.06433 0.495913 1.2189 6.39521 1.87573 1.09113 6.55902 3.76486 0.96912 1.94698 6.03793 2.14279 7.12677 5.5474 4.05607 2.68984 3.39491 2.34485 3.69708 1.46412 7.91948 2.18867 6.98424 2.9203 1.15697 2.2493 5.39043 4.2931 5.78012 0.984408 2.19718 3.27845 0.500653 3.3862 7.14187 0.417433 3.65024 7.45825 1.2608 5.74507 2.39791 0.174078 0.704392 0.680178 9.24676 3.39082 0.538847 2.19777 5.74507 4.66599 2.18801 0.610632 3.79201 4.02921 0.531184 7.73349 2.87234 4.54373 0.924779 0.698614 0.832697 2.38267 0.601684 1.50244 5.22634 0.630907 5.01876 4.02391 1.75505 3.20007 0.737748 4.06832 0.787017 6.7021 0.462688 3.38788 1.75935 3.43826 1.54153 0.844314 1.04261 1.14347 0.98266 4.8434 2.15599 5.96082 0.205439 2.66248 2.23155 0.923652 2.41958 3.01661 1.55441 5.22647 5.40869 0.345155 2.96668 2.06297 1.41497 4.17983 3.76171 6.27629 4.17251 0.654741 4.25212 2.38267 2.87652 0.718033 4.20816 0.341666 6.88157 3.79582 1.97949 3.92718 3.55617 5.04562 4.94044 4.02722 6.36028 2.40019 1.38041 3.72502 5.42882 2.06858 2.71571 1.09875 2.45948 3.72475 2.06345 6.10906 0.857759 3.07379 2.70616 7.22591 3.62409 1.31505 4.66945 1.68814 0.946388 3.33518 5.97666 2.56593 7.6205 1.83865 5.93963 2.29118 3.43826 2.7323 2.87234 1.45395 9.22642 0.786724 1.63388 7.45825 0.477808 7.14033 1.04261 3.30901 1.69202 7.65653 1.91192 0.478263 0.799393 5.65487 0.84671 0.970834 9.98527 5.73757 1.41497 6.44289 0.716936 1.724 0.947995 4.3454 0.449981 1.18472 0.439346 2.56593 5.44898 1.321 2.2169 0.892128 7.53503 0.837114 3.87249 2.65307 7.21689 0.353052 5.12553 0.581785 1.02107 2.82846 6.78223 3.55628 4.45557 1.92273 1.14158 3.3862 1.63388 5.94496 5.34415 1.20515 6.45403 3.00621 1.73766 1.729 9.93514 4.36811 0.935334 4.6315 2.70141 2.69483 1.26445 0.486925 0.653977 0.850848 5.69045 1.45083 1.16341 1.88687 2.92341 6.14604 0.903533 4.37708 7.17315 0.558381 0.593103 4.869 0.938984 3.46562 4.5448 2.87396 0.481734 5.63161 0.196477 1.31491 5.55385 3.56818 8.26583 1.98331 6.38583 0.564024 4.08598 0.661226 2.92209 2.54626 0.404912 2.64167 6.98476 1.55216 3.07763 1.59055 4.29936 0.484812 1.34996 6.22068 3.81166 1.27747 6.53924 3.49792 6.53179 0.408797 1.00866 3.54757 2.18871 1.31505 0.753429 8.44343 0.477808 3.65024 6.80287 2.959 1.66473 0.786403 3.88971 3.7757 6.82021 0.606849 4.86609 4.61061 4.4748 3.5996 2.06345 6.62568 2.35835 3.79582 4.03483 0.538847 0.66595 0.54053 7.58081 4.29745 7.86365 0.930157 1.42174 1.70094 4.10882 7.15012 4.04065 1.51819 2.22729 4.55069 2.69407 0.680178 5.51327 4.66162 0.789228 5.65795 1.22906 2.18867 0.788586 2.72303 3.89275 2.14279 7.88578 0.872373 0.99816 0.816752 0.96225 6.83805 0.912229 1.00101 0.75567 6.63522 0.971331 3.36232 0.931164 4.34394 4.43842 1.95964 4.09497 0.551361 2.56889 2.68416 1.4356 0.51717 8.43117 0.357697 5.34415 0.551105 4.94044 1.57415 2.82031 3.72502 1.13927 0.551105 5.94496 0.786724 1.32531 2.36445 1.49017 2.94462 4.02722 0.737748 6.21871 0.855245 4.34106 0.605252 8.12001 2.26276 7.81251 3.30531 3.02337 5.96398 2.82031 5.01434 1.82742 2.79135 5.42882 2.09227 4.17174 1.57199 1.30044 2.26177 1.724 0.882289 4.39013 1.26445 7.33613 4.38465 2.39475 7.01357 4.69521 2.54626 3.08154 6.20496 2.72227 5.6302 1.91815 1.67357 4.95199 0.636465 0.0144621 7.9106 3.28768 2.09866 2.14714 6.04699 0.130278 3.43658 0.610175 4.25616 2.85476 6.09545 4.5279 0.630008 1.79344 1.58181 3.38755 2.09116 3.86258 2.4047 1.44246 8.43117 4.3134 4.42449 3.51808 0.195515 4.97354 2.10727 2.70616 2.78566 7.81211 1.15115 8.40113 0.345155 2.6094 0.984059 0.875842 9.27288 4.8821 1.39778 1.21026 5.23905 0.54236 4.51196 1.09875 1.60149 4.5932 5.3206 0.375832 0.892128 1.11681 10.2195 2.75204 5.97009 1.2189 3.0163 4.25616 3.01661 2.54416 0.381635 3.36418 2.10351 0.770944 5.42096 2.90484 6.44931 2.22408 6.77245 0.819423 4.68176 0.790857 0.589121 1.28867 4.89591 6.38583 1.05618 3.04165 2.83323 2.63743 0.882289 0.716936 9.01189 2.47148 0.835066 6.36028 2.94462 10.935 2.54227 9.01189 6.44289 2.06297 4.20145 1.4951 6.03626 0.685003 0.903533 7.6322 0.66595 3.39082 4.14882 0.462688 0.17904 5.3079 6.10906 3.75872 6.25566 0.464674 1.56853 6.12863 2.31558 1.98671 6.09545 2.46461 0.984408 0.638516 5.75081 0.0144621 7.53578 4.74457 2.42418 3.19458 0.568658 1.55441 5.42096 4.72429 2.22729 3.89369 4.97375 5.61885 0.923652 1.46736 6.77719 0.432204 0.537411 1.14529 1.15423 2.72371 4.8434 1.0927 1.71984 6.39675 0.401708 1.39778 2.7109 1.84511 0.619971 0.874512 3.38404 0.830427 8.49361 1.25308 6.6889 2.87652 0.832697 6.83706 0.416874 9.24676 2.69407 0.197474 5.52774 2.43287 0.406497 4.05607 2.4961 3.69708 6.1406 0.831801 3.96514 0.452949 4.35865 1.97274 0.593103 8.12917 0.313061 7.23287 1.42145 2.46956 0.827238 1.46412 2.4961 5.5474 0.556074 3.36361 1.251 5.94529 0.841108 2.6094 5.40869 3.91345 6.52582 6.83805 4.5067 9.37103 1.74202 2.06433 3.51935 2.14183 3.22749 6.03727 0.991858 10.4232 1.54153 5.64607 3.81166 1.20313 1.15673 2.68812 2.5662 5.51327 0.704392 9.07681 6.11938 1.30044 4.89869 5.65795 1.18878 6.02985 2.23664 1.20357 0.899199 4.61528 1.84597 2.27203 2.19718 2.46461 2.85476 3.0163 0.495913 1.74202 0.841876 5.7524 1.56853 1.0266 6.55902 0.301068 5.36054 5.05145 2.56889 6.6019 1.97831 1.66879 3.87828 0.980981 8.89643 0.428371 2.68958 0.531184 1.27211 5.59092 5.59621 4.78213 1.85781 1.35706 4.77605 1.16341 0.343341 6.59648 0.767149 4.61528 7.36816 0.44122 1.39923 5.14746 2.20692 2.66928 0.485367 1.08864 10.4377 3.84707 6.7773 1.04352 0.816752 0.416038 3.91613 4.04503 2.959 4.99142 1.25343 3.33518 0.342795 1.41202 0.816603 0.685948 0.775969 2.74919 1.36083 2.64832 0.875842 6.07342 3.5669 1.44298 5.35106 0.232663 0.62944 6.177 4.75196 2.3387 8.70415 2.27203 0.901948 7.15012 3.27809 0.338161 5.55385 2.18007 0.937363 6.53179 0.874512 11.3702 1.0017 3.93139 8.05606 1.21157 4.99935 4.51196 2.74101 1.78065 3.22749 0.63267 3.71905 1.25378 7.51615 1.79344 6.37155 2.13398 7.11659 1.13549 0.786554 1.64604 1.56352 4.97577 7.73239 6.80041 4.80553 0.800711 0.566421 0.452949 8.47753 0.691224 2.33513 2.73732 0.344962 4.45557 0.579949 3.6733 0.784987 3.10349 3.24682 6.73281 1.20978 6.97114 3.54757 6.42333 1.48442 3.69919 1.94698 4.77869 5.38087 0.606849 3.0104 0.54053 0.133959 4.99345 0.653977 7.00293 8.55906 1.13549 1.64604 10.977 1.14347 7.14033 0.836582 1.04677 2.94713 4.59598 3.98301 1.87573 2.11519 2.95181 5.69234 0.65196 4.19979 0.543756 1.74793 2.82846 0.344962 2.36387 4.16603 2.38011 3.40447 5.19888 0.766795 9.37103 1.30722 6.77457 2.9203 0.332665 1.02304 1.81589 8.99665 2.32524 0.330355 7.4267 1.91464 3.08075 6.39675 5.14836 2.39475 1.2805 3.07379 5.23636 1.29449 2.09866 2.15683 0.991858 1.24311 2.78566 5.91967 1.26553 0.342795 7.6205 0.439346 5.03938 3.0104 3.5996 3.63417 0.761722 2.06401 7.58081 3.27845 5.7524 5.39251 0.697597 3.35738 0.404843 2.95655 1.32018 3.70378 2.36945 2.29826 8.11744 0.84671 5.9771 6.63105 0.912563 2.24098 4.04436 0.581785 7.0675 1.70094 4.72429 0.770944 5.38074 2.20012 0.611109 4.07242 7.08582 7.72534 1.15673 1.45249 6.14278 2.14714 1.29449 4.39564 2.43053 0.786554 8.55906 1.23121 1.0927 0.98266 10.977 0.924779 5.90842 5.52774 1.56448 6.73905 0.381635 1.38873 1.91679 4.63768 0.860953 3.14966 8.04349 2.58468 4.3134 0.51717 3.56201 7.51888 0.775969 5.47153 0.927455 2.9657 3.63635 2.36412 0.753429 5.12553 0.259664 2.3387 4.10882 7.0675 4.34106 6.96162 1.02864 3.84707 2.49547 0.601007 5.26912 1.84369 1.2262 4.17336 0.755448 3.43595 0.559945 5.2761 6.04699 6.14278 1.74793 6.77178 3.17433 0.493333 6.78223 5.02439 7.16442 4.53274 0.786133 0.601684 6.88157 2.0496 1.61575 0.661226 7.34842 2.15683 3.28768 4.30858 3.30901 0.844314 10.4232 0.410201 9.9193 1.0754 4.31332 2.13398 2.06972 3.40133 4.48997 1.02513 2.2493 3.65091 4.99629 0.583271 7.72402 3.87751 2.74919 6.43362 2.56513 5.64607 5.96082 1.63803 3.85704 1.27747 3.96514 0.538512 4.74457 1.28306 1.07641 8.47753 3.72475 2.10727 3.29589 1.80854 6.62568 2.38812 1.14174 2.11078 1.729 1.30878 5.41399 0.601007 5.22573 0.350015 3.98301 2.56393 5.06516 10.9624 0.400013 1.47723 2.74349 6.77719 8.85505 0.857484 4.55427 3.75724 2.19916 2.24214 3.74698 2.87814 5.80319 2.21077 0.636465 6.24895 1.89534 1.77524 1.59224 2.26435 3.2828 5.6302 0.130278 5.2761 4.32247 1.28306 7.53578 7.01357 5.14836 1.71984 1.23121 7.00293 0.486925 0.96912 6.53229 1.74339 1.14174 1.74989 4.77869 1.81275 5.22647 3.89369 1.51819 1.25557 2.10609 1.55216 1.14348 8.26583 0.909541 2.68812 7.72534 2.11875 4.71171 2.50333 1.30878 1.73766 1.55931 2.22408 2.11802 2.41502 5.27747 3.10945 0.935334 5.61509 4.41367 2.25252 4.08691 5.52891 1.02864 2.86169 1.27211 4.02921 3.12049 6.7773 6.57004 2.85335 2.83323 6.31126 1.91464 5.87648 0.784987 1.96553 3.14966 1.8577 3.21066 3.36232 5.94906 1.84511 8.88784 3.31181 4.66162 2.5662 0.909541 3.56818 0.338161 2.64548 2.29118 3.64255 0.691224 1.07641 4.32247 0.559945 1.45249 4.96035 0.787017 3.70378 3.60733 2.26907 3.54715 1.2788 6.02212 2.03105 5.13894 1.47723 0.824971 2.38011 1.448 6.341 1.81496 7.6322 6.14604 0.510396 4.46192 1.30722 4.5067 0.96225 1.04352 3.12049 3.79201 4.36927 4.89869 1.57199 8.24333 0.332665 6.98424 1.22906 0.931164 8.88784 2.7109 4.8821 4.99935 0.505459 0.524747 8.82003 1.11981 0.482851 4.21755 5.49049 0.451035 2.86511 4.29745 2.06401 4.05801 6.3044 4.6687 9.08863 0.615349 5.96398 2.49819 8.57072 1.84114 4.14415 3.75872 0.393821 6.38084 4.75196 2.37749 2.95181 2.73732 6.16989 8.12917 0.558381 0.675779 3.40133 0.852753 0.279535 0.44122 1.25098 3.91609 2.23811 1.15115 0.268923 1.1923 1.96417 6.61324 2.06858 2.79135 0.4957 3.76171 2.30405 6.07841 2.45948 10.2195 9.82977 1.13927 0.90867 2.25252 2.67425 3.88971 3.08465 0.344383 7.9301 2.81863 7.73349 2.68958 1.60341 5.33972 2.37835 3.34794 3.98067 1.97754 1.14799 8.96613 2.4047 5.43042 3.13166 1.28867 1.64973 2.50084 3.01674 1.33954 5.44898 5.97666 1.25343 4.5649 4.15087 2.46956 1.73137 4.78213 0.551361 2.58851 6.08511 2.03719 6.6019 0.836582 7.65653 3.95206 3.23824 6.07714 1.84114 1.90074 9.93514 2.11078 1.74339 0.715853 3.88108 3.0568 2.75204 0.610175 0.652602 0.250658 2.25566 4.74921 3.51821 2.94713 1.25098 10.4377 3.08625 6.57004 1.56405 3.13665 6.43813 0.804536 2.30459 5.49049 1.61828 4.99629 4.73409 2.18801 2.81863 0.857047 0.314115 7.89538 4.5932 1.36587 5.83614 4.77916 3.01027 2.83414 1.66473 2.90019 0.638516 5.78012 0.536504 3.49999 6.3044 0.920601 5.69615 0.728746 0.747571 6.27052 0.75567 1.11005 1.68814 3.76325 1.20978 0.875334 1.07634 0.818361 1.0017 1.97831 2.03719 1.05228 2.26276 0.615349 0.621292 1.81463 7.02961 4.74921 6.0545 4.20816 4.61016 0.565913 5.18677 0.916347 0.857484 1.0206 2.49819 6.51138 1.58884 4.51994 3.59509 2.35725 0.301068 1.09113 1.85222 1.56352 1.04677 6.07714 3.17158 6.1623 2.37749 6.177 5.81235 5.69234 1.73137 1.42145 6.05994 2.20692 6.90958 1.85781 2.9657 8.78792 7.86365 2.86511 0.619267 1.16012 2.07848 3.30531 2.38636 1.22276 0.942523 8.82003 3.55419 5.53412 1.96417 2.33154 9.9193 2.28028 7.40594 1.91679 1.47395 3.73552 3.56201 1.4356 4.06832 8.12001 1.03351 0.766628 7.69145 1.00101 9.14119 1.6467 2.41703 0.313061 7.12677 1.91959 4.14729 7.10395 0.788586 5.39043 1.02513 0.799393 9.95238 0.392003 2.71659 0.314115 1.31099 1.25378 5.77188 3.94481 1.3121 0.713845 2.64548 3.27809 3.49792 3.62409 0.370717 10.1616 1.04426 1.448 4.16603 4.64791 2.64167 0.920601 4.05801 0.761722 3.40127 3.98067 3.73818 0.81595 5.36054 2.35725 1.56388 4.46192 4.97289 0.653952 6.20496 3.20204 0.652602 3.43658 1.98671 1.01574 4.28143 3.51808 4.29339 0.796084 3.01027 4.2931 0.516606 5.21786 4.35865 0.579949 3.55628 0.493333 1.35487 5.03308 1.80991 6.83706 0.698614 6.73905 3.0568 2.11519 6.39521 5.97009 0.76231 6.51138 0.393821 2.31558 1.40629 0.491918 4.13453 1.20357 4.14882 4.66599 1.2608 0.416874 2.22271 3.38788 1.10199 10.935 1.49017 0.678464 4.5649 5.59621 2.02304 4.17336 6.14534 0.927758 1.79119 6.99107 5.83614 3.76008 3.38755 5.56149 0.558482 3.29589 4.97354 1.68595 0.503732 7.16442 1.85222 6.03793 3.69919 1.42174 2.73554 2.49441 1.94259 5.16757 0.554767 2.58851 4.09497 4.6105 4.65066 4.869 1.97274 5.21786 3.95987 6.74638 0.968027 6.77178 0.543756 1.34505 0.327759 8.11744 0.161548 1.45395 8.44343 2.36412 2.07848 7.0538 1.24019 1.11656 4.6687 3.02337 3.17432 4.6105 1.95964 1.44246 4.28143 0.500653 0.404843 1.55237 0.968421 1.83865 5.22634 5.83901 0.311218 5.35106 0.790857 3.04641 4.08691 0.90867 2.42463 10.637 3.75724 5.23757 2.97741 10.7748 1.3121 1.62222 5.06516 1.66022 2.5454 1.25308 1.80991 5.8002 3.91345 4.17983 5.73757 2.80301 5.65487 5.77188 3.71905 0.419865 5.9771 1.18297 5.27747 1.49344 1.0754 2.33154 1.1923 8.02247 4.29936 4.976 0.343341 1.45083 8.11584 1.14213 7.81211 1.24311 1.20313 6.22068 3.70629 2.72809 6.73281 0.754936 1.02107 5.38074 2.10351 2.36945 6.02212 3.27233 3.39491 0.377319 5.4998 2.19916 10.7748 0.520718 4.47433 7.73239 1.12957 0.968421 1.44298 6.38084 2.33513 3.64255 5.93963 2.10609 6.09605 5.51843 3.07763 6.03626 2.36506 4.68393 4.64815 4.54373 2.7323 1.75935 2.22271 2.43287 5.90842 1.97754 3.40127 3.63417 4.4748 0.184774 7.83816 3.63765 0.962545 1.07486 3.92177 2.87814 3.10329 0.457607 7.21689 2.23664 4.4047 2.26435 5.45159 5.18677 0.76231 1.30675 5.70663 1.69934 1.8577 0.860953 4.0271 5.63804 4.77916 5.56149 1.58181 7.51615 1.31099 0.351439 3.17158 3.23824 0.883987 3.19458 6.45618 3.59509 1.09155 5.03938 1.18472 1.40325 4.20145 1.81496 1.56388 0.654741 7.87039 0.232663 0.311218 2.72685 0.564024 4.89591 3.13166 0.773954 0.485367 3.01851 1.6467 2.2789 5.06999 2.09227 4.95932 2.68984 0.406497 2.0136 7.61029 7.88578 2.56283 6.25114 2.89331 4.74687 0.581149 0.728746 1.15927 0.835066 6.64724 1.35487 3.17433 0.968027 2.1831 2.40019 2.95954 4.73956 3.87249 0.754936 3.24682 2.85969 0.330355 1.59055 5.51843 1.7464 6.59648 4.976 0.478263 4.39351 4.68393 3.41685 9.95238 4.14415 3.88108 4.14297 6.25566 5.38087 1.74989 2.38812 4.1165 4.86609 3.10329 6.24895 4.95199 2.37811 3.76486 1.0266 0.464674 4.14297 0.715853 6.53229 4.34394 0.505459 0.63267 2.14183 4.42789 4.34229 6.80287 0.417433 2.2806 3.01674 4.99142 4.96035 2.43053 2.68162 0.17904 6.7021 0.484812 8.11584 5.69045 3.59957 0.239677 0.370717 
</DataArray>
<DataArray type="Float64" Name="wall variable 0" format="ascii">