<VTKFile type="UnstructuredGrid" version="0.1">
<UnstructuredGrid>
<Piece  NumberOfPoints="    3294" NumberOfCells="    2420">
<Points>
<DataArray type="Float64" NumberOfComponents="3" format="ascii">
-45.687 -35.4694 0 
6.77204 7.20284 0 
37.7777 -4.50374 0 
0.9629 -47.1199 0 
-20.2457 36.3558 0 
-50.893 19.3382 0 
5.79198 -32.914 0 
16.1397 -61.1305 0 
-0.392721 -38.9889 0 
57.4512 -20.611 0 
-47.7345 11.2512 0 
35.324 -17.0259 0 
-10.5326 30.7681 0 
5.03188 -48.8357 0 
51.9034 19.1644 0 
-7.99784 -31.5346 0 
-15.2963 14.0606 0 
61.8808 6.19779 0 
-21.8254 -29.2383 0 
23.4254 -14.9129 0 
18.1757 45.2967 0 
32.9664 39.2294 0 
-38.2079 -31.6826 0 
4.13598 0.771651 0 
-28.0558 54.6162 0 
41.6104 -7.56676 0 
-24.7546 -45.3488 0 
-20.7333 -41.7111 0 
-42.8812 11.556 0 
-48.2726 -10.2002 0 
20.037 37.2138 0 
33.8699 17.334 0 
-30.5631 -48.9278 0 
-25.0956 48.0174 0 
-21.7709 -10.313 0 
-42.9827 -32.0852 0 
-10.8764 27.0394 0 
-6.83321 38.352 0 
26.6352 43.0442 0 
-7.02892 -50.4521 0 
30.021 26.323 0 
-37.6475 -3.29434 0 
29.1784 -48.3525 0 
-32.951 50.9543 0 
13.2531 36.853 0 
50.7443 -15.3798 0 
-9.72704 -1.06827 0 
-20.8246 25.602 0 
4.78349 16.6003 0 
-3.89797 -32.6164 0 
31.7236 -26.9008 0 
18.9706 56.4549 0 
-18.8801 -7.1424 0 
35.0054 -31.9655 0 
-19.2692 -18.2882 0 
-33.5406 5.07763 0 
-7.36221 -39.7951 0 
41.5277 41.1778 0 
10.7679 -21.003 0 
13.1706 41.3218 0 
-20.2827 25.6322 0 
42.214 -29.5242 0 
37.5632 -37.6591 0 
30.8731 -19.95 0 
-46.4263 24.9804 0 
6.78036 44.0513 0 
19.1577 23.8773 0 
-50.6686 -21.3824 0 
18.5388 -13.2333 0 
42.4284 -20.4083 0 
11.3529 -3.0968 0 
-41.6819 -30.6495 0 
33.0676 46.4568 0 
-24.1858 55.306 0 
56.2539 14.8947 0 
-36.3561 -15.2515 0 
18.4351 -20.4936 0 
-34.4952 35.4661 0 
19.7691 -35.7725 0 
0.64302 59.2683 0 
-55.5366 -5.21004 0 
24.2745 -29.6667 0 
-8.0325 -8.64367 0 
-51.2118 -13.1986 0 
42.11 21.2016 0 
46.132 33.3609 0 
-53.4315 -11.9386 0 
-0.88433 44.8703 0 
-35.9553 6.72141 0 
-31.0365 46.3769 0 
1.61482 -37.7583 0 
-22.2717 -22.1874 0 
19.0984 24.9995 0 
-53.3144 -27.5074 0 
23.6704 -30.2087 0 
29.8739 -53.847 0 
23.3122 -1.76573 0 
-16.4157 31.402 0 
-13.4864 58.0548 0 
9.31525 -27.85 0 
17.0507 52.3091 0 
-39.8985 17.1969 0 
39.0098 10.3357 0 
-50.686 5.84815 0 
49.5104 -14.2643 0 
-11.0119 -1.15115 0 
-49.442 -3.80134 0 
24.0292 -2.07823 0 
-56.6719 16.9285 0 
-41.7327 6.84908 0 
51.6155 -24.9721 0 
-13.7438 10.0045 0 
-22.83 -41.1535 0 
20.028 31.4081 0 
37.374 -15.225 0 
59.8264 3.19251 0 
-25.1058 -22.5522 0 
5.0002 -19.392 0 
39.3046 -41.6661 0 
30.6054 -3.82061 0 
24.8736 6.54115 0 
-7.48633 54.194 0 
24.1966 -42.5095 0 
-47.2079 -18.1393 0 
10.8536 -47.0286 0 
-33.1296 37.7801 0 
-11.8213 -17.0018 0 
35.3097 -31.6445 0 
24.577 45.3531 0 
7.3515 -41.7234 0 
6.60718 57.0004 0 
-17.5103 -1.88847 0 
-35.2924 -26.1924 0 
-10.2535 -14.0524 0 
53.1434 31.0886 0 
-34.5544 40.0454 0 
26.4542 -4.51413 0 
46.1621 -27.8275 0 
-38.3238 -6.06259 0 
-20.6823 35.9004 0 
-42.621 3.67326 0 
16.8824 57.7733 0 
-18.5057 -54.8221 0 
-4.40244 12.4855 0 
40.188 37.4003 0 
3.05136 25.6709 0 
15.3363 31.7281 0 
18.1026 -20.2389 0 
33.8649 17.9462 0 
10.6063 33.4707 0 
-53.6784 18.9282 0 
-46.747 -24.482 0 
49.6292 26.6486 0 
-17.957 36.5348 0 
1.51538 58.5252 0 
13.3732 -50.4453 0 
7.19955 15.9793 0 
15.568 10.0295 0 
-45.756 -8.59671 0 
-2.63466 -57.616 0 
-17.8824 -3.11163 0 
-11.0288 -11.75 0 
2.82502 48.423 0 
-36.7382 29.7742 0 
-44.4132 -25.4113 0 
48.5391 -33.4229 0 
20.6252 26.2605 0 
13.3726 -14.5856 0 
-34.2346 -39.186 0 
-13.8145 -20.3083 0 
43.9573 16.7729 0 
-12.6563 43.651 0 
-28.2215 11.9164 0 
41.6556 11.005 0 
12.1386 59.2006 0 
-23.3917 31.85 0 
-10.9017 20.4451 0 
-25.384 47.8314 0 
19.3174 23.5395 0 
11.1824 -6.35632 0 
44.5226 32.6089 0 
-32.7215 -16.354 0 
-36.7809 17.6821 0 
-2.76253 -40.4154 0 
-34.7266 40.2902 0 
37.0842 -21.9101 0 
38.987 -32.267 0 
8.67741 23.4012 0 
-28.0468 38.8338 0 
-22.0122 -9.67106 0 
38.7543 0.452651 0 
55.8135 3.28203 0 
-16.3639 -49.5493 0 
-17.6396 -55.6647 0 
44.8314 31.0803 0 
23.6174 -15.1549 0 
33.1221 29.0027 0 
-15.1657 8.89074 0 
43.6078 -15.6126 0 
-42.6181 35.3634 0 
36.2245 -20.1697 0 
23.6234 -1.92528 0 
-12.3979 8.98176 0 
-17.4275 36.5484 0 
-10.1072 -24.6143 0 
-13.1834 58.2565 0 
19.8629 50.4833 0 
-10.9268 28.5367 0 
-1.68297 -4.16458 0 
-29.2916 15.053 0 
17.6069 -45.0627 0 
41.404 10.8979 0 
36.9921 28.5359 0 
0.730284 38.21 0 
-23.7062 55.4009 0 
-17.6998 -36.9452 0 
46.7662 -27.7144 0 
-2.60701 32.7865 0 
13.7114 49.9861 0 
59.6444 -11.8639 0 
-11.2321 15.1805 0 
-20.8494 2.91476 0 
29.7526 -37.8894 0 
-57.7902 -22.544 0 
9.89894 20.3295 0 
14.6438 -26.3023 0 
36.1874 44.3626 0 
-2.96375 40.8237 0 
33.9434 -25.8101 0 
31.6025 -33.6218 0 
-41.919 -19.3547 0 
12.7797 -1.96682 0 
-51.7902 2.64786 0 
-2.43041 -40.8073 0 
-43.7685 -16.4544 0 
15.855 -30.7473 0 
-38.1536 -9.09918 0 
-7.38222 4.87854 0 
-19.2669 8.86788 0 
-16.3261 -13.5656 0 
23.6563 -43.6345 0 
-6.86891 -49.9841 0 
-23.0379 40.5087 0 
-30.5874 -1.46406 0 
17.3936 -9.01368 0 
-26.219 12.3682 0 
1.75262 10.5167 0 
-3.67368 -16.9981 0 
-7.46279 14.5337 0 
56.3516 4.47887 0 
54.5654 -4.99032 0 
37.6689 31.186 0 
-28.9351 -13.4974 0 
20.7532 -8.84878 0 
5.50616 -15.7329 0 
29.4671 -29.9262 0 
-22.6757 -5.16374 0 
7.9405 -24.7453 0 
21.1324 -2.24343 0 
11.8008 -39.3573 0 
-16.4213 -26.0449 0 
-28.8288 -21.6159 0 
-20.8661 12.6012 0 
32.4581 -26.0802 0 
10.3307 -55.0833 0 
36.4639 25.1768 0 
-58.1644 6.70746 0 
0.618473 33.8151 0 
40.4627 -39.572 0 
40.6278 26.0225 0 
-54.1927 -20.111 0 
26.4778 36.5971 0 
-18.6394 -30.046 0 
-48.9612 -33.8696 0 
8.82561 51.4648 0 
16.2317 -53.3137 0 
-13.9066 57.6635 0 
-19.67 15.8696 0 
-15.0516 -31.6549 0 
-53.0644 -26.9382 0 
8.25373 28.5681 0 
-27.6536 -0.0554987 0 
-55.1447 -26.6994 0 
28.9058 25.6402 0 
20.5564 -58.4133 0 
-44.1001 23.0972 0 
-43.2652 11.7271 0 
19.8668 -48.9362 0 
-36.7751 30.1974 0 
31.0607 4.66565 0 
-23.6812 -9.51302 0 
-58.919 -2.85538 0 
-2.68124 13.1728 0 
-40.6917 -19.344 0 
50.6535 15.9899 0 
32.5026 -6.5912 0 
25.6232 54.9383 0 
-1.60539 19.9708 0 
-44.867 -14.5265 0 
-4.0357 -21.9838 0 
50.11 -2.06649 0 
-49.6411 33.1777 0 
41.2497 -10.1094 0 
-5.17215 34.2369 0 
3.10454 32.2114 0 
52.1432 29.0946 0 
-31.1195 46.9163 0 
-46.3636 35.8867 0 
25.8917 16.9865 0 
16.3001 18.9867 0 
-8.2597 -48.7185 0 
18.9519 -38.5123 0 
-3.02058 51.0605 0 
-31.7442 -27.1984 0 
-55.5697 9.8042 0 
55.7746 -9.11818 0 
7.30549 -58.4062 0 
-15.6891 47.6369 0 
-59.5243 -14.3735 0 
44.8571 -40.8595 0 
31.4616 33.6847 0 
-11.6026 59.0361 0 
-51.2979 30.9882 0 
-36.1466 -43.5221 0 
35.219 23.66 0 
-51.2586 -31.3046 0 
41.6222 -7.93609 0 
-42.4394 -43.0155 0 
-27.5262 30.485 0 
-18.2102 -0.417923 0 
12.2288 -7.89386 0 
-23.4397 40.4895 0 
-28.1711 -22.3903 0 
45.3164 6.31277 0 
55.3493 20.956 0 
-55.7489 13.4778 0 
-34.7099 -23.1933 0 
-33.2244 20.6559 0 
-30.1394 -4.16252 0 
25.6209 -39.8912 0 
-31.0483 19.039 0 
-43.9522 42.9424 0 
15.49 -28.1791 0 
51.6992 18.8841 0 
-35.5276 -34.913 0 
-12.9504 39.703 0 
-1.61704 12.8444 0 
-38.9545 -4.8495 0 
-7.26839 3.99937 0 
-13.8529 -35.0735 0 
-21.289 25.0772 0 
-9.63352 -24.7708 0 
-47.2665 26.1008 0 
-36.3188 -44.5293 0 
-43.2922 34.764 0 
-14.4008 24.3883 0 
-29.4345 16.1736 0 
50.3911 35.3665 0 
47.5963 -26.0113 0 
-26.599 31.4357 0 
17.5453 -60.6856 0 
-6.30452 -32.1601 0 
-30.9289 26.9989 0 
-39.7588 39.052 0 
-26.4713 -31.0616 0 
-33.4431 -33.6276 0 
-7.20911 25.5491 0 
31.3726 19.7293 0 
35.558 12.6833 0 
-0.166878 -0.448759 0 
-0.342021 -13.9435 0 
-13.6624 -33.377 0 
-43.1013 -0.641553 0 
14.2685 37.6736 0 
2.31935 -13.3883 0 
-50.864 -20.5257 0 
22.1916 -25.2881 0 
0.135262 -23.9519 0 
-8.32647 7.52493 0 
-28.1195 -50.8801 0 
-41.1256 5.64443 0 
-18.2003 17.2816 0 
-49.0081 21.6821 0 
-18.1225 -45.6216 0 
-46.0436 24.8127 0 
-20.0127 10.635 0 
42.8602 43.6726 0 
-44.7836 -37.2554 0 
-6.30238 22.6057 0 
27.7864 49.6363 0 
37.4843 -10.5824 0 
-4.45937 2.83504 0 
13.1911 -44.9205 0 
50.5922 -31.7141 0 
48.9948 -32.5558 0 
-25.7723 1.19581 0 
-32.9433 -16.8286 0 
48.5952 39.957 0 
-56.5943 -10.2493 0 
-3.47062 50.8049 0 
25.0771 -17.8522 0 
48.7471 23.949 0 
31.198 -14.22 0 
-15.2353 -50.3901 0 
-37.58 30.981 0 
-33.0434 -0.0158956 0 
-11.5717 -46.4533 0 
-15.7027 8.77415 0 
21.965 55.9452 0 
7.55638 14.8496 0 
4.94239 43.4447 0 
-54.8958 24.8562 0 
19.2578 12.4423 0 
-44.5136 -1.53405 0 
-23.9579 -34.6291 0 
41.6534 -37.3561 0 
11.9894 54.7699 0 
-47.9227 -27.9271 0 
-29.5641 -5.11046 0 
24.7465 -21.8344 0 
21.9947 34.824 0 
44.5404 32.7854 0 
-27.4937 -22.9139 0 
42.151 -18.1109 0 
28.2042 12.2596 0 
26.8976 42.2294 0 
-45.9183 40.9572 0 
17.052 45.3862 0 
-24.3377 20.0527 0 
5.07967 10.2934 0 
12.0724 -19.34 0 
34.1336 -46.5528 0 
-28.8033 9.60218 0 
37.0072 36.1016 0 
-13.8419 -0.92064 0 
-38.6856 -5.51162 0 
-28.4363 -26.8869 0 
45.2113 -42.1005 0 
-14.0055 21.4241 0 
-12.4994 52.2352 0 
-19.888 46.097 0 
50.9593 -19.7972 0 
17.7126 -35.6969 0 
29.0037 5.07575 0 
-7.02948 -53.5404 0 
-16.3853 -13.9862 0 
-43.4345 -16.8484 0 
-34.503 -34.5566 0 
-51.6404 -13.542 0 
2.1122 -58.7777 0 
-7.25246 -54.2048 0 
31.5376 -4.58482 0 
-46.1906 15.8977 0 
2.02975 25.0836 0 
-8.3477 -31.3081 0 
11.5876 -61.8332 0 
-25.3168 -36.1608 0 
-55.4574 16.273 0 
-5.75987 59.8554 0 
12.9487 6.37219 0 
-31.529 26.6042 0 
-35.5183 -35.9237 0 
23.4537 28.1554 0 
33.4428 47.1943 0 
6.19536 53.3904 0 
7.94306 -15.7525 0 
-24.1014 31.2071 0 
-46.1092 -13.1958 0 
11.1768 -39.8896 0 
24.6406 -46.6657 0 
-34.1298 -39.0808 0 
4.61142 -34.0521 0 
-25.9145 -39.0688 0 
-21.4144 56.943 0 
-8.51392 -38.6824 0 
50.0574 -10.5808 0 
0.223082 -14.339 0 
25.2785 -17.3554 0 
-2.36084 46.2117 0 
48.2782 -13.1828 0 
8.8228 23.2273 0 
-22.2136 -51.5819 0 
8.75065 -13.3737 0 
-6.90189 -4.31026 0 
-23.7059 -46.3256 0 
-5.37898 -4.00738 0 
-62.1643 8.92291 0 
18.611 -5.695 0 
3.19436 -8.99254 0 
3.50483 49.347 0 
14.5046 0.975501 0 
-23.1822 -51.5775 0 
-2.87994 21.6301 0 
23.0107 11.3041 0 
[...]
<CellData Scalars="wall variable 0">
<DataArray type="Float64" Name="wall length" format="ascii">
3.27502 6.49566 4.43833 1.37947 3.54873 1.03851 4.28875 0.657886 5.75067 2.94195 7.89314 3.56373 1.26322 4.23337 1.81764 5.37219 1.28654 7.21848 0.150128 1.53789 3.8372 3.42061 1.78739 2.81272 1.92363 4.23747 1.1129 1.11854 0.550158 8.2338 4.23747 4.13433 3.20365 6.6595 3.41079 5.41218 3.94688 0.650731 4.15706 5.70215 1.45591 5.34005 5.6526 3.89509 5.29582 4.02984 3.87501 0.344142 5.32984 0.582498 4.05216 9.24708 1.60828 2.82501 4.10005 0.973031 2.25574 0.882545 7.58114 4.69548 0.973031 3.46544 0.927424 1.80665 5.69712 2.91243 7.32305 2.23238 4.19752 1.20304 3.00984 3.0671 1.27692 3.70339 3.0827 5.56535 2.67131 5.51304 3.63907 4.34467 1.29889 2.41149 1.0327 5.15692 2.49483 7.14731 1.87188 2.61721 1.55561 1.65723 3.09938 6.81868 3.34102 6.22827 6.5991 1.8256 0.327171 3.59936 3.30721 2.89982 0.35377 7.31578 2.8655 2.49289 1.83618 4.20935 7.22923 1.53789 2.29041 2.72934 7.65841 0.734019 10.4235 1.14054 6.58355 0.360343 3.15259 3.89525 0.902644 1.34991 2.32316 6.14281 4.10154 2.6886 4.61286 4.62336 4.62257 1.73945 7.24364 4.88638 1.94456 1.08035 2.73759 5.69053 1.74845 1.85638 1.99207 5.36139 6.82056 1.60056 5.29847 0.885913 2.67376 1.74845 0.226483 6.44717 4.0502 0.729025 3.47987 1.78272 2.52367 4.77359 0.37872 3.671 1.96496 0.458841 4.78922 5.41218 1.48594 0.57777 7.06331 0.657886 3.68538 0.420835 1.37947 4.65646 2.67142 7.16912 2.13111 4.14716 2.24368 0.181853 4.89651 0.954244 4.96881 1.46935 9.74119 1.58232 2.08604 6.7627 2.61054 0.848659 2.67828 2.62223 1.63597 0.946781 1.06982 6.95074 2.29041 0.150128 0.137226 4.85971 2.02992 0.340303 1.68304 0.240212 1.54406 6.97378 0.43498 0.537028 4.06719 5.85556 3.63937 2.44516 7.86881 3.43572 4.80965 2.56014 1.48084 1.28457 4.96881 8.85076 2.27785 1.93849 7.02049 0.543266 6.185 0.192774 0.909588 2.84916 5.15692 6.77271 1.85029 5.60896 0.442048 7.83435 3.03534 1.29889 7.48472 1.21474 5.05762 3.7482 6.3764 4.10154 1.91104 1.16712 7.47649 0.388347 0.514853 1.07921 3.30673 4.95512 0.967759 1.78073 4.28073 1.22178 3.17014 2.30406 0.967759 1.09407 3.89509 3.96523 0.868118 4.0883 1.88377 2.18065 6.31988 4.76352 0.653791 4.58279 1.15048 8.14277 2.96276 4.41466 0.490917 1.30206 3.0372 5.07807 0.760175 4.06184 3.42061 3.01085 7.10535 0.89793 5.41434 0.731202 5.44367 0.181853 9.17802 0.204528 7.90772 1.88377 4.3829 0.962951 3.14173 2.30017 1.88853 4.71049 2.08659 1.74776 2.62707 0.276697 2.4828 3.6099 8.46739 8.84128 1.34278 0.549424 0.509818 7.58114 2.21247 2.24368 2.49684 2.22199 1.64927 0.122026 5.55712 1.34803 5.25837 1.16708 8.6252 1.08054 0.781628 9.66479 0.589342 2.47614 5.36573 1.87188 3.38261 0.858661 1.65723 2.82327 1.74669 5.74391 0.527552 3.52569 2.84755 0.936679 4.88638 0.547964 4.95338 2.84276 3.0044 5.12147 1.63597 8.08001 0.350921 4.92702 1.57033 2.03791 1.68885 0.403282 2.18065 7.90772 5.34005 2.53562 0.590538 4.87586 3.72624 3.18356 0.930502 2.78327 6.33756 3.47263 1.61197 1.66236 3.33745 2.69665 7.31578 0.285815 1.75931 3.47263 2.87892 0.482381 1.83618 1.66871 0.77952 0.839465 2.05089 4.61563 1.0524 8.04101 4.76352 0.979162 3.48377 3.40015 5.16009 2.26311 9.29163 2.61054 0.906145 1.4762 5.26238 4.50242 6.21539 3.31717 1.35733 1.05764 0.450057 1.32918 3.57408 4.48171 0.945738 1.83762 6.65897 1.10347 6.39632 3.0671 1.87388 1.48955 2.81824 0.999788 4.64232 4.54571 4.06927 3.31172 3.04968 0.636248 0.713536 6.40295 1.71708 1.05764 7.03391 0.678593 7.36359 8.713 1.13372 0.524747 3.02538 1.42096 7.03579 0.813377 0.607479 2.05089 4.09506 3.83012 1.05721 2.52367 5.16973 5.26806 1.13052 3.15564 2.89982 3.48909 5.43445 7.69588 6.3631 0.371753 4.60501 0.301486 6.11459 3.81104 2.47614 2.34084 3.31098 0.37727 3.66176 3.69227 2.45295 6.59724 0.713536 5.09919 3.62863 1.0983 6.58557 1.37861 2.51001 2.73207 6.11319 0.37727 9.00957 0.643774 2.66953 0.859148 7.53071 2.1681 3.89127 0.991313 6.31988 0.403282 3.94785 1.60276 0.568946 1.72656 4.90288 0.596831 3.99607 0.96989 7.94898 2.99068 7.72116 0.423095 0.909588 8.43842 0.514853 1.69752 2.27048 0.957261 3.11026 0.58273 2.58864 0.287742 5.53418 2.21612 0.957261 2.58763 1.78378 3.81163 1.22835 6.36134 1.1129 6.6595 0.665329 0.255655 2.29606 2.2955 2.64087 2.29029 1.96602 4.3522 4.29216 7.04161 2.14746 2.23238 0.248422 0.699013 3.6099 3.77752 7.44892 1.92363 5.24175 2.58745 0.860956 1.72656 0.284183 4.13433 4.87586 8.86321 0.81563 5.90632 1.80291 1.99483 2.67828 8.18289 0.999788 9.2398 0.207184 7.62025 0.858661 4.16364 2.46536 4.74411 1.44812 6.64889 1.30206 2.54753 6.185 1.49282 1.73162 4.52688 2.01758 3.24407 5.81144 0.490917 8.35538 1.07921 8.43842 0.192774 2.54753 5.37578 4.69934 1.02078 6.3976 6.58557 1.21497 8.41685 1.71803 3.60508 0.48733 3.66176 2.1681 3.9056 4.36665 0.568946 3.18457 3.36738 0.421063 3.27502 7.05286 4.82095 3.78095 5.00911 1.22705 2.40252 0.557503 2.51344 7.47649 3.22108 3.87361 3.75291 0.390571 6.9888 2.82132 3.63955 4.60501 0.407348 0.363557 9.73073 2.96834 3.543 2.46536 2.74123 4.17145 2.56014 0.422551 1.22178 3.72539 5.46309 1.09677 6.16617 1.8681 2.5454 0.907858 1.30053 0.54497 3.99607 7.57787 2.26668 3.36738 2.10618 2.20399 8.77547 4.95103 2.19044 0.537028 4.16421 0.355105 5.90447 2.42819 2.12257 1.62248 3.1514 0.450057 0.58122 5.86972 1.36527 5.69712 0.719906 5.08017 4.95103 0.558378 0.40245 9.05313 3.94785 1.68885 5.39127 3.08078 0.291872 9.17802 1.58232 0.981555 3.32278 1.96035 4.61286 1.47577 2.53562 1.45591 1.78815 2.59518 2.87892 6.33756 3.74835 1.83762 1.08093 2.67142 2.21247 0.882545 6.30877 0.700288 10.1931 2.28599 6.50372 2.76106 1.27573 4.61606 5.26361 0.464051 2.32462 6.78282 2.85083 5.74391 1.56213 2.94905 0.443752 1.417 0.902644 0.626526 2.54307 3.14839 0.442048 2.2628 2.4828 8.45168 3.54084 6.95002 1.89761 4.81947 2.94557 3.07579 4.63535 3.74613 3.72539 4.28073 3.85351 5.37219 0.41972 4.4859 2.34059 3.88644 3.62479 7.10394 1.7158 4.36431 1.63767 8.10516 2.50644 3.49876 3.24407 3.21028 2.55851 3.93604 1.06982 3.48994 1.44125 6.24065 0.760643 10.5627 0.552746 2.75769 3.3314 6.82811 0.356526 6.74159 1.30192 0.540507 4.65646 4.43833 5.7712 2.02315 3.11871 1.34189 10.1931 4.07165 6.44717 4.36035 2.82327 4.47856 5.32984 4.62973 6.21023 2.26391 4.83488 5.09919 0.636248 1.525 0.255966 8.89829 4.79619 1.88778 0.999016 4.0688 0.788105 4.54571 2.45547 5.26238 3.24314 6.58355 0.538623 8.87349 3.18457 1.60276 9.05313 1.64208 2.21935 5.5421 0.329234 1.44812 6.81862 0.897327 0.801372 2.67938 2.23917 4.63535 2.55522 8.41685 3.21371 1.13915 3.02386 3.18456 1.31762 6.85501 1.1073 2.34059 3.46391 1.66019 3.69227 0.48733 8.87349 2.21935 1.11837 7.26228 1.29524 3.31959 2.96282 1.69153 0.385779 0.681069 2.45295 3.19991 5.64568 7.03579 1.42328 7.30514 2.02315 0.468539 3.50941 5.26361 0.585568 1.91498 10.4559 0.356941 2.55851 2.72043 5.16715 3.9702 4.95338 3.14628 1.70131 1.81179 1.27573 0.859148 1.03032 1.0524 3.13584 3.42493 2.416 0.78031 7.876 0.801372 3.30197 2.94557 1.66293 2.73759 8.36332 0.852493 9.16211 1.34991 1.417 8.66113 1.62248 0.625679 8.2515 1.84924 0.644939 3.59062 3.86124 1.70131 1.77396 4.77327 5.5421 0.385779 7.87842 0.57777 9.44347 1.34803 1.75641 6.31625 3.40015 1.01785 0.284183 7.94898 8.71437 0.665329 3.20365 4.06402 0.620467 3.24264 3.42494 0.390571 1.55977 4.29552 0.407106 1.53436 1.6051 4.69934 0.566397 1.29637 2.57822 4.40365 1.20289 2.45554 4.36445 2.77858 0.708781 3.77752 1.34278 4.15074 1.22102 0.879937 3.06555 1.03851 2.68927 3.22108 0.362969 5.12204 5.86718 6.54277 1.11223 3.48994 0.240212 2.6738 2.09991 2.77858 3.55301 5.61963 0.670895 8.32572 0.626526 0.692661 2.98377 4.46442 0.476913 4.04993 3.21405 5.85853 2.42819 2.95619 2.70519 0.524236 7.24364 3.31766 1.66296 0.734019 2.40769 3.34102 0.709711 0.327171 9.45815 5.21273 2.6738 3.02682 0.709711 0.42781 7.40948 2.82501 0.831206 2.83987 2.49483 2.84916 0.322813 2.80091 2.04125 1.16969 4.74803 0.407106 3.84437 2.92805 0.58122 6.65897 3.74835 2.8075 1.11073 3.39778 5.95071 3.30835 2.85332 0.331952 6.3631 0.987878 1.02665 3.93604 0.356941 3.17601 0.826573 2.72934 6.95074 2.16219 5.6526 0.930502 0.77721 3.54476 3.21028 2.01758 3.24715 6.04806 5.3168 2.37184 3.13149 2.00319 5.1027 2.76144 4.05238 1.37861 3.60508 6.47072 7.03391 1.35733 2.8796 0.68863 0.907858 7.67088 0.584924 1.26499 2.64494 1.75124 6.83036 3.10362 0.482381 2.59518 4.92747 5.18261 3.8372 10.4235 1.66296 2.54547 2.26407 3.01085 1.8256 0.269666 1.91498 2.41608 4.62973 0.344142 0.662586 0.605025 9.45815 2.8112 6.68752 5.17807 1.8681 0.520463 1.61938 6.84459 0.476913 1.45037 1.0217 5.05762 3.36154 1.04413 2.99983 0.206842 1.75641 5.55712 2.18743 7.02049 2.72043 6.24065 0.869394 6.75311 2.70098 0.402909 0.552746 4.85928 1.60056 4.07165 1.65723 7.62025 4.3829 4.0883 3.0375 4.59247 0.452679 2.63794 2.48017 0.276926 3.43572 3.3158 0.387939 9.92374 1.02809 4.59041 0.693592 2.26311 2.45547 1.14054 9.16211 1.465 0.620467 4.82222 6.91749 9.49878 3.46391 4.4859 4.02648 1.55561 6.25026 2.40142 4.88784 2.58745 4.87661 0.33124 2.20399 4.2689 2.58099 4.59041 3.48987 1.27692 6.39632 1.11223 0.586218 9.75255 0.885913 0.655095 7.90385 0.869394 1.44125 1.28765 7.44234 1.45686 3.62863 4.83488 0.93838 0.872241 2.10028 3.88644 4.85397 2.81941 5.95163 4.35338 5.53418 1.06995 1.59884 3.7482 1.0217 4.96922 2.31101 6.73632 2.75181 3.47987 1.08973 5.18261 4.11697 0.368256 2.86407 3.6629 3.72624 1.80291 3.77785 1.48955 5.82956 2.85837 6.18819 1.92495 1.78739 0.980329 3.48909 3.30721 3.50447 3.48475 1.36513 1.77396 2.58952 0.784124 5.1027 1.36054 3.97925 5.12204 2.56458 8.92065 0.752651 1.10799 6.98878 3.02538 8.06155 0.693592 2.58099 1.10347 8.18289 0.848659 9.29163 3.93001 3.30835 3.04951 7.72116 2.08098 1.89761 3.69153 2.41149 0.431472 8.2515 0.607479 7.31057 2.88107 3.13584 4.61563 0.36404 9.73073 2.92335 3.62479 2.10028 2.32413 1.57605 2.49684 4.14716 1.83311 0.586218 6.54277 4.3396 6.67649 3.42493 2.88107 1.96105 3.13579 1.30053 6.83036 3.67194 6.73632 3.32278 4.28335 0.946781 5.12147 6.02877 2.92805 4.05701 4.40365 2.17466 6.81819 1.17368 1.64362 7.22923 2.90008 3.51247 5.41434 0.500067 4.06565 3.11026 2.21612 0.776269 6.21539 4.16421 0.43498 3.80479 3.31959 5.13412 1.61938 7.37117 1.73409 2.47923 1.41998 4.3997 0.285815 0.35377 7.69588 0.922774 0.810544 1.73409 2.42373 6.24249 2.72111 0.37872 3.41079 0.490112 4.3396 0.925197 5.16425 1.42096 4.39806 6.40295 6.59724 0.681069 3.88508 9.92374 3.2916 5.04586 6.39899 6.81862 1.49282 0.543266 2.18743 0.122026 1.39721 6.78282 6.39921 4.36049 2.40769 7.65841 0.826573 3.61589 6.22827 0.226483 6.82056 1.14844 1.65601 1.56213 1.74669 4.36035 0.340303 3.18469 4.36049 0.533654 1.64927 8.54621 2.06471 0.655095 5.29847 4.85928 10.5627 3.94235 5.16425 2.29591 3.19991 1.0983 1.45686 0.468539 5.7712 0.700288 1.81179 3.86124 6.14607 0.362969 6.9888 3.42494 4.54656 0.72428 2.56458 1.5906 8.92065 0.72428 3.49223 0.678593 6.98878 1.78272 2.75181 3.67194 1.75124 4.77541 5.16973 0.421063 2.26668 0.252152 3.73573 3.6629 2.23368 0.356526 6.49566 0.776269 6.36134 0.138044 0.982811 4.23239 2.8796 3.31717 2.40142 2.74642 1.60266 1.36054 1.5906 1.10799 1.60933 5.21298 3.99089 6.39093 3.58471 0.702465 1.97295 0.743971 3.57408 8.78569 2.94905 1.65601 3.48333 3.50447 2.00319 1.71803 2.55522 3.07579 1.78073 3.87501 1.15323 1.08093 0.945738 5.83877 1.99207 3.32439 7.16912 3.09938 6.37085 0.743971 2.72368 2.75769 0.402909 0.207184 2.63241 1.28457 6.94036 0.360343 3.24314 1.4762 5.88419 0.234995 1.46935 0.982811 1.48352 4.29216 4.22091 2.19726 7.08489 1.70389 6.17862 3.96768 0.584073 10.0043 4.92702 4.38073 1.48061 6.86901 0.653791 5.16009 6.31625 0.206842 3.91551 2.2299 1.62301 9.71678 0.285532 0.134113 4.85721 6.37242 0.420835 8.62608 0.879937 0.847495 7.05286 3.54873 2.56882 3.21371 1.87362 2.34997 0.137226 7.21848 1.03085 2.2955 3.28423 4.0502 0.419564 5.51304 0.839465 10.1106 0.58273 4.06565 4.97863 4.09506 3.19309 0.355105 5.13412 1.29524 1.6111 1.70389 0.191394 2.70519 0.346109 3.17014 6.16617 0.12141 4.06927 0.788105 2.90744 3.14839 5.16327 2.03849 7.83435 4.36369 4.58539 4.29838 2.57926 0.927424 3.77089 0.42781 5.23413 8.04849 0.507041 4.23337 0.317098 2.83753 1.20304 2.29149 6.39093 4.56995 1.30192 6.06085 0.368256 0.381896 1.73162 3.89253 1.70529 1.16708 0.191394 10.0043 5.16428 3.0827 0.359843 3.21405 1.88995 5.3168 3.14032 1.66236 8.51422 2.85332 3.93001 2.99068 0.388347 2.51344 11.114 2.64087 1.03085 2.67131 3.03534 2.03849 0.226655 8.26027 1.85029 0.865032 3.06185 2.73207 3.31652 0.68862 6.18761 2.58952 7.87842 1.69153 4.53544 1.54406 2.0378 0.650217 3.3158 7.86881 1.78007 9.71678 2.57926 2.30605 2.34084 0.589342 5.30626 7.29967 0.969522 1.57033 6.86901 0.303027 0.474925 4.85721 3.72628 1.31762 3.34161 3.11871 7.30514 3.6815 3.9236 2.01979 0.915125 4.69302 4.71049 1.55977 3.75291 3.71593 2.41894 1.02078 1.6051 8.22757 2.27785 0.423095 3.04951 5.95071 7.19387 0.120035 9.65436 1.25396 5.46309 3.74613 2.23917 1.80665 8.04849 0.841691 0.68862 1.33747 6.31654 0.719906 2.3974 3.671 2.72111 3.94235 7.44234 2.47923 0.810544 4.8012 0.550158 3.55816 5.80604 0.490112 4.15706 4.46381 2.16257 2.416 6.67649 0.813377 5.64568 2.29591 0.925197 1.96105 7.31057 4.3997 3.83274 4.04993 6.84459 1.65723 4.02648 0.41972 1.81764 0.507041 3.99089 6.37085 7.53071 7.876 0.750727 3.9056 4.53544 2.96282 3.80479 6.97378 0.269666 6.5991 3.61589 3.17601 10.4559 0.6247 5.07807 2.30008 3.48475 1.15323 4.02984 5.35411 5.35697 0.873246 10.2885 2.76144 0.784124 2.0378 5.85556 2.31449 6.82185 2.8075 6.30877 2.25574 4.69548 1.36527 2.2854 1.95167 7.44892 0.708781 2.09991 5.21273 0.605025 2.18256 0.431472 7.14731 2.83987 7.45426 1.84924 4.05238 6.82185 0.631332 1.33747 3.31652 2.51001 5.95059 7.09322 1.78378 3.4814 0.329234 4.77327 1.36513 2.30008 3.0372 6.64889 0.65799 2.08987 5.47752 3.81163 7.09322 1.48594 0.540507 4.56995 5.25837 9.44347 2.02992 7.00115 0.901651 0.585568 4.61606 1.39721 3.18469 1.66871 2.49289 4.80376 1.06995 0.287742 10.0531 4.46442 5.35039 1.69752 4.35338 1.45037 1.21497 6.11319 3.06185 1.7857 3.54084 3.30197 0.897327 0.94716 0.644939 7.45426 0.831206 1.60828 0.509818 10.023 5.60896 6.18761 0.841691 5.23413 0.322813 3.8431 0.731202 3.51247 1.46351 0.643774 1.23887 4.58539 1.04413 2.14135 2.37184 1.88995 1.63237 2.42373 7.37117 1.93849 7.19387 1.02665 0.860494 3.91551 2.99983 3.63907 0.419564 4.77359 1.05721 3.21419 2.01979 1.70456 3.77089 3.46544 4.10005 7.40948 0.771346 10.2885 3.23067 8.85208 2.67938 8.36332 1.08035 0.858079 8.85208 1.07024 0.120035 2.76106 4.21626 4.29645 1.72664 0.527552 3.9702 2.29029 8.26027 2.04392 2.75622 3.55816 1.11854 1.09407 4.95512 2.16259 2.96276 0.6247 5.29582 1.69328 2.36257 7.10394 2.92335 0.363557 9.51192 4.06477 6.73669 0.622281 1.69328 3.10151 2.40252 3.02682 5.61963 0.798199 1.53651 1.48146 4.62336 0.524236 1.07024 3.23067 0.873246 2.05888 0.5381 3.4678 9.65436 4.0688 5.48222 1.91104 2.30406 2.90744 6.0999 8.06155 0.524747 1.48428 2.54538 6.75311 7.90385 2.06471 0.760643 1.47895 3.78835 3.68538 4.28875 3.06555 8.62608 3.78095 5.07879 2.74642 4.2689 2.10618 2.23022 6.3976 2.41894 3.33908 2.94195 0.464648 4.88784 5.21298 2.32073 4.90288 0.860956 2.79321 8.6854 1.525 3.04968 6.47072 0.255655 8.71437 0.96989 0.54497 3.13579 2.31101 6.3656 0.558378 5.90447 3.19309 4.24727 1.11073 2.2854 1.87362 6.85501 3.6815 1.42328 0.901651 4.1778 2.57822 5.88695 2.82132 0.36404 0.547863 2.54511 2.17466 0.317098 1.26322 4.25565 4.80965 0.276926 7.31229 8.713 2.18886 9.49878 0.783939 3.49128 1.10489 4.05216 4.51452 3.3314 2.72368 1.97295 1.66019 6.25026 2.61721 5.36573 3.81104 3.18356 5.82956 1.87388 3.00984 2.67328 0.77721 6.35681 5.88419 0.906145 6.7627 2.83753 7.31229 2.48017 2.62449 2.91243 2.81272 1.92495 1.74748 4.87661 5.24175 5.08017 6.31654 0.631332 2.31449 4.06719 2.19044 2.90008 4.20935 8.04101 1.03032 2.66953 1.46351 2.10162 8.01816 0.667731 0.696929 2.54547 3.31766 1.73945 4.34467 1.70456 3.9236 1.88853 2.2628 7.48472 4.82095 0.847495 1.22102 3.97925 1.60266 5.07879 0.582498 4.47856 0.663412 1.47895 6.82811 4.51452 0.547964 5.69053 1.66293 4.81947 2.08098 0.625679 3.14628 2.98377 0.531338 3.4814 2.58763 2.27048 5.35039 0.459581 2.96834 2.00242 5.30626 9.66479 1.01785 3.48377 1.1687 0.464648 5.75067 7.06331 1.95167 6.96576 3.58471 2.29149 4.19752 2.14746 3.89253 5.81144 3.49876 3.33041 4.41466 2.16259 3.30673 8.35538 0.651139 7.04161 1.48352 0.138044 1.22835 5.47752 2.42698 2.16257 4.87891 3.89127 4.36665 0.750727 0.78031 2.54538 6.49605 1.76668 4.05602 2.8112 0.601768 3.48333 1.14844 5.36139 5.83877 4.48171 0.422551 8.85076 0.954244 2.00167 7.29967 2.00242 1.71708 4.39806 3.83012 4.97863 0.500067 4.50242 2.62449 2.63794 5.81416 0.248422 7.32305 0.980329 8.2338 4.8012 0.922774 5.43445 0.915125 3.21419 3.15564 3.0686 4.57665 6.26121 4.85971 2.34997 4.1778 7.00115 0.663412 6.21023 2.41608 5.16715 2.70098 3.78835 3.50941 6.14607 3.59062 0.94716 2.63441 0.464051 3.49223 4.54656 3.24264 1.465 2.18886 7.36359 0.372366 2.84276 0.866313 4.58374 3.33745 3.14032 6.04806 2.68927 7.89314 3.33908 3.71593 3.87361 2.42698 2.08987 4.44299 2.62707 1.64237 7.41815 0.381896 4.11697 4.92747 1.78815 5.70215 2.16219 4.52688 3.10362 1.08973 3.73573 3.40739 2.85837 3.59936 2.69665 2.95619 5.86972 3.39778 4.24727 0.346109 5.23279 8.6252 1.70529 3.33041 2.50644 0.952538 2.23368 2.86407 6.06085 6.74159 2.6886 6.3764 1.59884 4.80376 2.8655 1.64362 0.89793 0.291872 0.662586 9.24708 1.10489 0.702465 6.96576 2.18256 1.32918 3.1514 8.66113 0.443752 8.78569 1.09469 3.94688 4.78922 3.7253 3.7897 1.31684 3.0375 0.868118 4.29552 8.22757 1.20289 4.05701 3.84437 0.987878 6.11459 2.52903 4.58279 2.2299 0.860494 0.969522 2.00167 4.89651 5.44367 3.8431 4.36369 1.1073 0.538623 0.40245 3.45374 3.63937 4.25565 3.56373 3.85351 0.999016 3.96224 0.95895 5.00911 1.16712 5.48222 0.359843 3.70339 3.48987 1.02809 0.852493 2.12257 5.85853 1.48084 4.17145 4.50589 3.15259 6.94036 0.331952 11.114 0.557503 3.10151 9.51192 0.407348 0.371753 0.252152 8.77547 0.33124 1.74748 6.18819 3.40739 0.179333 3.96768 4.24246 3.80767 0.952538 8.10516 4.23239 7.08489 1.83021 1.83583 2.54556 2.79321 0.68863 3.08078 5.45734 0.285532 1.78007 2.44516 3.45374 2.5454 5.17807 0.573195 2.28816 3.41391 7.67088 1.68304 8.54621 2.22199 1.57605 5.86718 0.590538 1.47577 2.78327 4.58374 4.44978 8.86321 4.46381 0.650731 1.09469 3.96523 0.991313 4.87891 1.96035 6.02877 3.0044 0.372366 3.24715 3.68449 2.32316 2.32413 5.95163 1.1672 1.25052 3.24551 1.47174 4.49813 0.547863 1.41998 5.80604 2.75622 2.83784 0.670895 3.83274 3.89525 4.50589 2.74123 4.16364 3.38261 2.85083 0.77952 10.0531 2.58864 10.1106 1.82516 4.24246 6.17862 1.6111 7.26228 0.979162 8.14277 2.39296 0.566397 5.37578 2.23022 1.1687 0.692661 8.45168 0.276697 4.44299 0.65799 5.95059 0.531338 1.08054 5.23279 3.80767 1.82516 1.11837 1.64208 6.39899 2.96976 2.94156 1.13229 4.82222 4.06402 4.71874 6.81819 2.54511 4.49813 7.31035 0.845781 8.25784 2.16788 0.881981 2.28599 1.34189 3.34161 3.18456 1.48428 1.13372 3.49128 1.5087 2.50787 6.49605 0.808276 9.2398 2.81824 3.77785 5.90632 2.63441 10.023 0.549424 0.533654 6.39921 2.32462 0.981555 9.74119 0.234995 6.35681 2.08604 4.28335 2.67328 5.56535 5.16428 0.584073 0.179333 1.63767 3.54476 1.83311 2.13111 3.32439 1.85638 2.67376 9.75255 2.29606 6.3656 4.96922 0.729025 3.28423 0.781628 6.81868 2.63241 4.74411 3.543 0.459581 1.7857 0.865032 6.77271 1.0327 3.69153 6.95002 2.83784 2.04392 0.226655 5.16327 2.54307 8.32572 3.68449 3.13149 2.14135 3.36154 1.21474 6.14281 0.866313 8.08001 2.62223 1.99483 0.808276 0.81563 4.44978 1.29637 2.39296 1.15048 2.52903 0.301486 3.63955 5.88695 3.31098 2.30605 4.29838 1.23887 9.00957 1.63237 8.51422 1.61197 1.75931 6.24249 0.699013 5.81416 0.452679 3.88508 1.30023 1.35666 8.46739 5.39127 2.03791 3.72628 0.134113 5.45734 0.520463 7.57787 0.596831 2.32073 1.60933 0.752651 6.0999 0.601768 
</DataArray>
<DataArray type="Float64" Name="wall variable 0" format="ascii">