<VTKFile type="UnstructuredGrid" version="0.1">
<UnstructuredGrid>
<Piece  NumberOfPoints="    3359" NumberOfCells="    2467">
<Points>
<DataArray type="Float64" NumberOfComponents="3" format="ascii">
18.9712 47.9196 0 
23.2942 19.6937 0 
-26.2931 -32.5623 0 
-7.74366 8.86046 0 
26.0997 7.18621 0 
-32.6362 3.07147 0 
-15.3132 -5.43411 0 
1.47438 -13.5854 0 
-36.4861 -9.7942 0 
0.559358 -63.134 0 
39.2752 -1.77412 0 
9.16717 46.5208 0 
-37.2825 -0.239705 0 
-61.3729 -1.12059 0 
42.5216 39.4587 0 
9.61562 -28.2419 0 
36.741 46.8895 0 
-19.4537 50.359 0 
-28.3254 -20.5522 0 
38.1214 -31.2413 0 
33.1811 -24.6932 0 
54.1679 21.584 0 
-35.8723 31.5494 0 
17.9627 3.77906 0 
-9.82104 40.7006 0 
-33.2196 32.3828 0 
-22.2652 -32.2749 0 
21.8016 -49.505 0 
26.1019 -26.3104 0 
-11.427 -0.883827 0 
5.15859 -54.2383 0 
-12.71 0.161337 0 
-27.7654 -52.4419 0 
-37.6761 36.1109 0 
5.19969 -48.8479 0 
-18.6726 -41.1371 0 
-27.4887 1.14823 0 
25.9615 18.2918 0 
-14.3759 12.83 0 
-59.3281 8.00489 0 
-7.34001 7.62523 0 
-21.9334 -57.1661 0 
-1.17762 -28.8328 0 
46.6978 24.3761 0 
-60.3125 10.3687 0 
32.5897 -37.4886 0 
-34.5457 -1.03873 0 
22.0464 28.2283 0 
14.1088 59.9161 0 
-34.4536 33.123 0 
7.02092 55.5696 0 
1.19124 32.8322 0 
-6.24319 42.9604 0 
55.0771 7.8304 0 
32.9602 21.7734 0 
-6.6133 36.3981 0 
-1.26488 39.6939 0 
29.5843 27.0731 0 
20.3882 -54.6386 0 
-14.6281 43.1823 0 
33.1704 21.7009 0 
20.36 -6.49109 0 
-39.0862 9.06081 0 
-10.9982 -0.973312 0 
-11.6674 -50.0448 0 
43.0056 -24.3324 0 
-30.5444 -40.0602 0 
-13.4559 -58.7451 0 
-4.03654 -57.8705 0 
-52.0222 32.9935 0 
40.8331 -10.5524 0 
-35.1342 -14.9988 0 
-51.8187 1.102 0 
-1.82756 -6.55689 0 
47.5304 9.05414 0 
54.0849 -7.36425 0 
-39.957 12.6502 0 
-51.2756 35.1594 0 
-13.0404 -57.0941 0 
21.4805 4.91463 0 
-10.2957 24.4493 0 
29.2168 42.6438 0 
-29.758 -30.074 0 
-54.4886 20.5222 0 
-3.27344 -22.9633 0 
-11.7178 -22.6694 0 
36.311 -18.0812 0 
-5.95062 16.0835 0 
36.5047 40.4737 0 
-20.1061 6.55862 0 
51.7718 29.1321 0 
-18.6771 25.8206 0 
20.1907 -12.9963 0 
22.7026 35.2331 0 
-20.1501 -7.05347 0 
-29.3291 -51.8666 0 
7.0162 33.6952 0 
-41.2479 -38.7151 0 
-31.949 47.4479 0 
-55.1443 15.7062 0 
9.30695 -21.6431 0 
-5.93482 2.18796 0 
-33.6906 -9.73279 0 
-42.7959 -13.5988 0 
36.3371 1.93803 0 
-41.0895 -0.272832 0 
42.9296 43.5381 0 
32.1406 -1.75503 0 
16.0883 52.2812 0 
-14.5917 -28.674 0 
-3.29983 -11.745 0 
-50.9653 35.5562 0 
-21.4763 14.7647 0 
28.6459 -45.4709 0 
15.8269 -43.8396 0 
-0.418317 -41.153 0 
34.2674 12.7658 0 
4.57889 38.545 0 
-21.1379 44.1964 0 
-20.0104 -38.9238 0 
-19.2282 51.7963 0 
21.5032 -1.76148 0 
-48.7642 -4.33776 0 
-3.32049 33.3204 0 
-21.6395 2.56955 0 
-4.90772 -6.80837 0 
46.4839 1.4327 0 
51.3529 29.7914 0 
13.7566 15.599 0 
-24.8538 52.7098 0 
-21.5708 -43.2324 0 
-19.964 -10.1957 0 
33.687 12.2444 0 
-50.5988 8.93458 0 
-11.182 -7.85608 0 
-55.3679 8.33913 0 
24.1616 37.4345 0 
24.8076 44.8608 0 
11.7142 25.6425 0 
12.0572 -7.01036 0 
-50.0575 -23.8409 0 
34.7633 -8.07027 0 
3.80108 16.9567 0 
-19.0232 49.8401 0 
-36.476 -8.82647 0 
-35.4337 43.6767 0 
16.5031 -49.531 0 
43.2079 -23.823 0 
-5.77749 -43.8627 0 
-24.121 23.9123 0 
34.9854 -44.0333 0 
44.9415 16.3871 0 
-42.4193 -33.3459 0 
30.6264 -47.2821 0 
38.9477 -2.44777 0 
43.8711 28.7338 0 
27.3658 53.9731 0 
-22.8595 -32.4859 0 
48.3534 -31.7006 0 
48.467 20.5758 0 
51.0433 -27.5399 0 
-36.7809 -44.0998 0 
59.2326 -1.8933 0 
24.3128 45.7699 0 
5.43673 -29.7847 0 
-17.3779 33.9218 0 
-20.0085 -8.05756 0 
-36.4151 -42.148 0 
3.39754 51.806 0 
26.5955 -43.594 0 
25.9548 -33.6955 0 
26.8751 32.3807 0 
-59.942 3.6759 0 
21.1469 21.4931 0 
18.2453 -22.1443 0 
51.3493 -11.2894 0 
-22.2404 12.5813 0 
-28.7756 40.1145 0 
-48.1229 -31.3385 0 
43.4911 -26.8745 0 
12.5027 -51.1175 0 
-23.0052 47.3869 0 
-29.9798 -17.336 0 
-2.49396 12.9775 0 
-14.2352 22.9498 0 
-5.72696 -13.5607 0 
42.9181 -43.2035 0 
-6.7855 16.4799 0 
33.5895 -33.0215 0 
-25.3722 -46.5881 0 
19.8934 -49.4777 0 
42.7231 18.2337 0 
-16.6819 -50.2918 0 
-35.8624 -21.9956 0 
18.0527 53.1612 0 
51.3461 30.7613 0 
18.767 36.9027 0 
12.1392 -33.3131 0 
9.52344 11.9605 0 
-46.756 30.8346 0 
5.85473 40.1507 0 
43.6682 -14.6647 0 
-41.6866 34.6866 0 
8.24024 -43.9406 0 
-10.8585 -33.857 0 
-5.79571 43.1363 0 
-29.5495 6.4632 0 
-14.3899 44.3136 0 
-7.36559 -15.0015 0 
0.877519 -41.7622 0 
-27.7919 42.5735 0 
61.0212 5.52473 0 
4.73702 4.04528 0 
21.542 -3.24111 0 
-18.0838 -23.9389 0 
-57.3556 -4.45718 0 
10.5756 -29.5514 0 
-16.7934 55.7096 0 
-24.5606 38.559 0 
-0.735888 -59.9242 0 
16.1214 24.442 0 
-2.60648 49.8359 0 
18.5581 -35.0974 0 
-17.5499 21.6615 0 
48.2611 -33.349 0 
47.2434 9.70375 0 
-20.7256 14.4857 0 
19.4378 54.3957 0 
40.1983 -1.61704 0 
-12.2029 -21.9699 0 
-6.59606 59.5562 0 
49.5015 -5.47752 0 
-39.8813 10.2774 0 
-54.301 19.6973 0 
-26.0758 -53.927 0 
-48.5479 7.91272 0 
17.3495 22.7753 0 
-22.1424 21.6618 0 
-19.763 -22.0969 0 
-35.219 14.1114 0 
-46.1705 19.8912 0 
-2.69853 61.4542 0 
-56.5216 -20.788 0 
21.3976 -3.65827 0 
-57.0298 1.23753 0 
-10.282 -24.0791 0 
6.8308 36.7967 0 
-7.31262 -24.0256 0 
-28.0856 54.5002 0 
-18.3418 -39.8599 0 
-10.0961 -29.0991 0 
25.3495 19.0059 0 
21.5982 21.5366 0 
-32.1371 -30.6735 0 
-10.3866 -7.68536 0 
2.49421 -2.20392 0 
-31.5579 -3.27 0 
-12.1851 35.6463 0 
0.9069 -49.3235 0 
-43.1348 -42.91 0 
60.457 -4.02787 0 
17.0213 -21.191 0 
30.7053 38.0728 0 
-35.6465 10.161 0 
11.9363 -47.1856 0 
48.6472 -30.3395 0 
-24.2861 30.228 0 
-53.8461 21.0079 0 
-21.5672 3.22004 0 
-12.845 46.6768 0 
30.5268 -12.6776 0 
-38.2631 -35.072 0 
-42.3471 -6.90447 0 
47.7628 8.88501 0 
42.2235 28.5403 0 
-0.152047 -55.5488 0 
54.5705 1.51813 0 
32.3316 -4.55429 0 
11.5582 49.853 0 
-17.6939 -14.9839 0 
-24.6191 52.2832 0 
13.8557 51.9232 0 
-15.257 -49.243 0 
51.1774 -13.2506 0 
27.7936 -17.953 0 
40.902 11.4391 0 
-44.3796 -11.7518 0 
21.4528 -1.90828 0 
58.2952 -11.2718 0 
-42.7147 28.6509 0 
-54.4788 -6.96535 0 
-19.3986 3.35601 0 
-10.2723 49.9643 0 
22.7396 -35.1559 0 
-46.935 -10.026 0 
9.79268 8.61303 0 
7.83097 -51.567 0 
-28.0894 47.0662 0 
-29.2596 41.0949 0 
-35.8739 -8.52116 0 
-20.4559 22.5155 0 
20.294 55.8407 0 
3.46979 38.3786 0 
13.7298 45.3687 0 
54.4307 -18.7964 0 
-19.1885 -22.413 0 
21.5931 -4.71544 0 
5.18829 38.457 0 
-30.1254 25.3456 0 
-14.2693 -13.8829 0 
55.0039 0.655595 0 
-25.2721 -2.43462 0 
51.1234 13.626 0 
-9.04265 -41.0397 0 
41.1421 -14.8753 0 
-60.2271 -3.11529 0 
-44.4265 37.0603 0 
-16.1837 -38.5093 0 
-15.4365 17.4567 0 
53.6529 18.4804 0 
-9.66125 52.3054 0 
33.8344 -38.322 0 
24.0214 -53.8793 0 
13.8481 45.2819 0 
-28.9667 -26.9101 0 
-1.31008 -7.99452 0 
-27.4099 -23.5954 0 
-41.9191 -2.1503 0 
52.099 28.4508 0 
-25.2534 -44.6701 0 
48.1282 -32.7764 0 
-54.5003 -7.0346 0 
6.47619 -22.3236 0 
41.0572 -12.4909 0 
-37.4389 -21.9623 0 
-29.335 -11.4054 0 
55.4998 -10.0918 0 
20.3805 -41.866 0 
-29.0005 -26.4692 0 
-22.0356 17.175 0 
32.7164 -27.7818 0 
-1.47993 40.6178 0 
48.3298 -31.9961 0 
1.86151 52.1212 0 
5.69103 -7.09062 0 
-46.5205 35.9733 0 
-5.96507 47.6598 0 
1.8676 -25.0622 0 
-22.2211 15.8484 0 
25.7576 50.2102 0 
-49.4484 2.09851 0 
-42.4829 15.5128 0 
-38.7172 17.8732 0 
-8.68019 -15.3804 0 
23.338 -29.8437 0 
-14.5773 12.7374 0 
1.0432 14.6494 0 
-39.6636 40.847 0 
-15.868 -37.8618 0 
-27.0688 31.5612 0 
15.8342 -15.4716 0 
6.6864 37.1009 0 
-32.4605 20.2979 0 
-50.0539 15.333 0 
33.2228 -37.258 0 
8.10479 46.0685 0 
-41.9188 -2.51906 0 
-18.3624 -50.0796 0 
-51.2185 2.36912 0 
3.38186 -1.12941 0 
-7.6131 -49.801 0 
46.6046 15.1575 0 
16.251 12.7269 0 
-46.6111 26.3997 0 
11.2954 -50.3192 0 
23.1205 -43.2569 0 
1.66259 60.5854 0 
60.4701 10.3607 0 
-27.3527 32.1579 0 
8.47618 -13.5682 0 
-57.4112 -9.3562 0 
30.9638 46.308 0 
32.7154 21.7926 0 
30.3816 13.6295 0 
21.0235 -20.4975 0 
-46.1223 26.3727 0 
-27.5326 12.8434 0 
57.4446 -18.9146 0 
-54.2393 -19.2557 0 
-20.91 -25.9008 0 
47.9579 17.5592 0 
-10.6176 9.33005 0 
50.6524 30.0036 0 
-45.2619 -17.4291 0 
43.4188 -22.8268 0 
40.1045 -10.3835 0 
-15.7646 12.5321 0 
24.0409 -20.2218 0 
-2.83872 14.7344 0 
59.1548 17.3079 0 
-16.993 41.0625 0 
12.8888 -21.9893 0 
-9.33595 53.3117 0 
11.034 -63.3199 0 
-59.4447 7.29382 0 
-2.23206 -14.9355 0 
-31.2818 41.1482 0 
-42.4267 6.00162 0 
-10.7998 -23.1051 0 
31.5817 50.3554 0 
36.5711 39.744 0 
-13.7698 15.6419 0 
9.80271 -43.3023 0 
42.4902 -43.6905 0 
16.345 10.4916 0 
-38.0475 47.8811 0 
-12.7734 -0.47481 0 
0.145821 23.711 0 
-16.2211 27.3725 0 
-15.3814 -4.36724 0 
1.77024 -16.2548 0 
-3.85048 0.595686 0 
18.0709 8.88016 0 
-51.2098 30.0912 0 
-54.2161 -18.4264 0 
-6.23986 57.0137 0 
13.3569 -52.9602 0 
-18.0946 -24.9577 0 
4.0621 32.4229 0 
20.5552 34.9229 0 
-1.67663 49.9358 0 
43.0146 6.9279 0 
-1.90743 24.1025 0 
-23.7829 22.5662 0 
-52.1924 -3.02017 0 
38.804 -47.1813 0 
-20.1143 -2.87513 0 
14.9353 -14.5746 0 
-59.656 -9.78105 0 
17.9806 -9.2706 0 
-25.9358 -45.0647 0 
3.50982 9.71091 0 
17.1233 45.2601 0 
16.3942 -43.041 0 
-34.4088 -2.79061 0 
5.27753 10.9888 0 
-29.3693 -18.8817 0 
-3.37431 -48.5949 0 
-27.9518 -43.6433 0 
-0.894325 24.7322 0 
-43.4977 -12.1672 0 
-21.4922 -50.0594 0 
13.5703 32.3106 0 
-51.1723 -30.7453 0 
-27.8936 47.7753 0 
31.748 -11.4718 0 
-1.11856 41.4331 0 
33.6511 -48.4633 0 
39.1469 -1.25243 0 
40.944 25.3176 0 
-35.7598 -6.10256 0 
25.0062 6.50419 0 
-36.4812 -42.3665 0 
-1.24723 37.2633 0 
-0.672691 55.3038 0 
-43.0194 -28.5746 0 
0.150426 4.24794 0 
-3.60312 -28.7028 0 
-28.0342 -4.02591 0 
36.4735 13.4637 0 
-16.268 -45.2525 0 
4.19208 17.1325 0 
-50.9184 -12.63 0 
27.4376 31.438 0 
24.965 -9.07082 0 
-20.8853 -50.504 0 
-4.42678 -53.2304 0 
-23.0167 39.7166 0 
36.5547 -40.1026 0 
7.13236 56.0937 0 
21.7818 -1.6197 0 
-11.3312 10.9939 0 
32.1063 -47.2361 0 
-26.7664 -13.9754 0 
-21.5233 -32.4797 0 
-19.7905 -13.2678 0 
-17.334 -16.5129 0 
18.2709 -34.2272 0 
12.4286 -32.7118 0 
-7.44963 -14.9975 0 
50.6995 6.25794 0 
32.382 -3.6484 0 
-56.9838 -22.2682 0 
-47.5074 -16.2678 0 
[...]
<CellData Scalars="wall variable 0">
<DataArray type="Float64" Name="wall length" format="ascii">
2.08295 2.81846 2.29632 4.6703 0.757828 0.408409 2.94526 2.86378 0.195308 6.62516 6.37265 0.53922 4.69338 6.3815 4.45089 7.82775 1.98446 8.82848 0.729854 4.12035 0.393798 3.5221 0.714212 9.60166 0.858772 9.33707 0.822618 1.49631 1.14222 6.65191 4.90526 2.24214 0.8952 7.96866 1.37186 2.91827 1.72804 8.41448 0.323867 0.985797 4.02853 4.32252 2.81301 7.99574 0.889938 1.37186 1.10418 3.42088 3.47627 0.65828 6.5561 5.27456 2.47052 2.46314 0.726388 0.506836 6.4686 1.59991 2.01621 0.5626 1.6894 5.32164 0.60981 2.85985 1.22569 3.93145 3.02996 3.18756 1.77501 0.657246 1.74977 1.36654 7.66517 1.69927 2.41698 3.82356 4.32167 0.48126 6.97848 3.82279 4.76391 0.414089 3.22466 2.57371 6.51292 1.04785 1.59825 3.32241 2.76669 0.506836 1.91126 0.363701 6.06484 0.953117 3.35523 1.58081 6.48434 2.09082 6.23079 2.5896 7.05114 0.0537418 3.62515 3.54341 6.03458 1.90229 0.716296 4.06612 5.3093 4.16304 0.536881 5.7738 5.40242 0.860035 5.7738 4.31763 1.72577 5.7577 1.04155 0.59702 5.37889 2.48251 0.634776 2.2833 7.99574 2.5896 0.798103 4.51905 1.29826 4.66297 5.58911 2.78221 2.19173 7.14335 0.35102 6.70793 3.11088 1.81802 0.852459 4.08026 0.291034 8.07036 1.64281 6.75859 4.22634 7.51417 3.06066 5.21577 4.95109 0.626893 4.06612 0.154338 4.53823 7.10396 1.29582 12.5281 2.22666 3.63657 7.67752 8.62102 5.87199 1.47629 3.2217 2.94465 5.41481 0.648774 4.8552 3.89397 0.817975 4.32085 4.76391 0.299896 7.20373 5.13338 4.71352 6.27678 0.459695 1.49569 5.21768 5.44306 2.85022 8.1333 1.74715 2.78047 3.04771 0.55541 4.34469 4.87675 2.23616 7.23147 1.48042 0.33156 3.95931 4.82557 0.781852 1.46892 2.79715 3.16927 2.92137 6.78002 7.30338 2.86882 6.20396 0.365834 3.21077 1.69809 0.155197 0.0373141 0.320124 1.67687 3.10495 2.64861 2.52349 7.80485 2.6298 2.53081 1.77501 0.243847 1.49135 0.459695 0.852508 5.82468 1.21513 5.60073 3.35523 0.789482 8.24057 4.62069 0.285654 2.57413 8.00562 5.82322 3.26583 9.20823 0.867773 6.87459 1.07819 8.03104 1.56369 1.34603 6.09506 0.685372 1.53637 0.903522 11.5333 0.356424 1.48843 0.546235 4.43716 6.94546 1.74356 0.93428 3.92527 1.07267 0.450099 4.06138 6.49139 1.29654 4.59683 3.24644 4.3642 3.98467 2.21337 3.98467 1.97405 0.936298 2.12554 1.67221 5.67506 1.61777 7.01395 0.694221 2.11917 8.00562 1.68356 3.26183 3.48295 5.27456 0.593353 0.365834 7.67859 1.90655 0.903522 1.27724 0.315255 7.9917 1.43753 3.89316 6.91124 1.54216 6.94647 0.131339 1.18035 1.81743 2.60097 3.95931 3.42088 1.39418 0.288874 4.49438 3.88979 0.439338 6.80405 2.29632 7.31444 2.32634 3.93406 6.1951 3.50217 2.71836 0.942202 5.19713 5.66863 4.57084 5.5157 3.71702 4.31464 5.32164 3.50258 2.22214 1.71593 7.18626 3.13142 3.52794 3.24347 1.54525 1.02678 0.942202 7.55954 2.87307 5.82468 3.16124 0.71438 2.8756 0.811016 4.53416 0.947317 0.560981 2.69098 2.81855 0.315255 0.507972 5.21124 0.611701 5.81647 4.63728 2.6347 3.5702 3.24347 1.21037 2.46314 4.11118 6.19157 0.840434 5.82322 2.11917 4.1578 1.72504 5.13338 0.555691 8.06999 1.89066 3.66604 1.57336 4.54871 7.53786 1.78028 0.324123 7.31444 2.81846 6.57089 5.09008 1.82199 1.63729 3.50258 1.6894 1.34093 6.80656 5.40605 0.450099 6.06987 4.32167 2.98242 3.06291 0.584991 7.86281 0.297676 6.52078 3.06848 0.92487 0.563551 2.22666 3.02511 1.65088 2.89566 9.21366 5.37218 0.793944 2.16239 2.70151 3.26712 0.516533 0.427931 1.93189 2.55956 4.97684 0.598555 4.67869 3.67698 6.57089 0.5626 6.79349 1.86345 1.21238 7.67752 2.07843 1.71417 6.25073 4.42488 0.827205 3.34662 3.61219 0.955502 2.44921 5.80525 0.517378 0.632981 1.46208 4.73996 0.378028 1.71417 2.34045 1.39123 5.5157 1.79368 5.60192 7.12651 4.15123 0.639227 9.3913 0.218675 4.44196 6.22733 1.90398 0.365106 0.817975 0.540621 5.70349 1.73161 1.97749 9.20823 0.60981 7.18626 4.01989 2.44013 3.19255 2.57371 1.87199 2.06023 10.3666 0.333878 1.63195 0.347584 8.84539 0.368817 5.78248 0.433752 3.83635 2.7389 2.41698 4.05162 0.686458 4.63273 5.49533 9.69242 0.494071 5.33035 2.10609 7.31216 3.57847 2.3335 3.89677 1.46892 5.30799 0.895399 0.756058 4.90309 7.05114 5.58911 2.95231 3.11022 0.501169 1.90655 3.94129 4.70926 0.363701 1.14965 11.5333 1.35567 1.25627 0.964981 1.84305 0.618286 5.56285 2.04625 9.56573 4.70926 4.81299 6.22535 6.06484 3.58117 2.09369 4.53823 1.64357 6.26175 3.10495 1.43546 8.47438 0.54405 8.65137 2.4018 5.91096 2.11696 1.80332 4.24739 0.454529 5.3774 6.61066 1.74977 8.17795 3.69453 1.11476 1.44815 1.45384 3.05167 1.09852 5.03309 0.230752 8.26959 5.18796 5.94427 0.630195 6.16153 2.85022 0.951851 1.20012 3.41651 7.69043 3.86266 3.50974 6.52967 0.577564 8.51818 0.532253 9.415 0.513212 5.94427 1.42773 4.83139 1.18035 9.25479 1.49569 1.49135 9.73871 2.12468 3.45098 4.43514 2.7148 0.798879 4.82557 2.60097 3.69453 1.48763 2.54662 4.85852 5.30935 2.65186 1.29826 5.13967 0.55441 2.02303 6.52078 1.77795 6.20661 2.78221 0.735004 6.67577 0.390427 0.0663754 1.28104 5.66863 3.05684 1.64357 0.154338 0.827939 8.41448 4.43283 4.90309 6.80588 1.82199 6.80588 0.756058 8.46044 0.88745 1.33714 2.22214 1.63729 6.4085 0.714212 6.73519 4.31604 2.09082 0.779777 4.44787 6.59213 2.59488 1.73403 1.72853 1.34292 9.51422 0.333878 1.72782 7.58982 0.53922 6.4085 3.62515 2.20005 9.60166 1.52331 6.78826 0.93428 1.71011 2.39265 2.78047 2.7562 1.14629 1.26143 0.510671 4.51107 3.60468 2.58406 6.46213 3.87978 2.87311 2.88375 0.347977 7.06701 6.65357 6.48434 2.21149 4.34391 3.22977 5.51365 0.414089 4.32085 0.365106 3.26583 0.396275 0.832163 2.20087 5.30711 4.37334 2.50484 4.38753 1.15891 5.40242 0.860035 3.47229 1.89066 0.621282 2.91548 0.990107 1.17062 0.285654 0.895135 3.44888 5.88436 1.06757 3.66776 6.71081 6.25073 0.378028 0.144867 1.30688 3.3975 3.24332 3.85054 3.92625 0.444375 3.15747 1.61873 3.61679 0.555722 2.06023 5.29994 1.60253 8.12295 2.85985 6.61066 2.20269 8.09273 7.07569 3.74109 0.811016 0.680727 6.78718 6.78274 2.86378 2.5104 1.77795 3.2143 3.16696 8.10845 1.5591 4.07918 2.09049 5.41481 0.338495 6.38555 0.454529 4.22431 1.04851 1.05861 0.667476 4.45089 0.947113 0.168357 2.26197 2.13648 6.18768 3.71731 4.24788 0.545989 1.8844 0.686458 1.68988 1.29025 1.83165 1.67339 6.65191 0.889938 2.2833 8.64967 0.765961 1.55451 5.1113 0.661445 6.01274 4.65221 3.47627 6.80405 0.5284 4.83139 3.73112 0.424047 0.174019 9.35887 1.57392 1.06565 2.12609 0.347977 0.360013 11.0473 1.04335 6.99078 3.50974 0.673698 0.884296 0.928465 8.13057 4.16472 3.04771 2.39265 5.86064 0.648774 3.82279 3.67698 1.60988 2.79715 3.89677 4.43283 5.09008 0.761654 3.6811 1.45093 7.53786 2.08295 6.78274 1.60604 4.11118 2.47052 3.48295 5.21688 6.24613 0.321767 0.292641 5.30711 4.57549 3.45739 6.15694 3.71731 3.54341 0.626893 2.72714 1.98446 2.65684 8.62011 0.393574 0.56782 9.68048 5.07568 4.21159 1.69014 2.39419 6.47359 4.65221 2.33059 2.86121 1.25627 0.650774 0.661445 4.82067 0.56782 1.17257 4.0446 2.97089 4.59321 3.51302 4.87675 3.69454 1.68904 3.00323 6.57856 7.34648 0.860514 3.04339 1.25658 4.43605 0.968315 4.12219 1.77103 0.72106 1.67221 6.75831 2.23986 6.7738 0.695436 0.734667 5.55549 1.25491 1.8678 0.91772 0.966498 2.95231 4.66297 2.65186 0.297676 9.10445 6.91699 8.29487 0.144867 4.73996 0.396275 6.87459 2.0756 1.87532 2.13536 0.892792 8.62349 0.598555 4.64529 3.54525 3.08943 3.48932 4.7745 5.86064 1.71011 1.74356 5.83391 4.8552 3.64742 5.44874 2.3293 1.93085 5.70349 1.49256 4.76123 0.360875 3.24896 5.10332 1.90229 3.18756 8.15978 2.12468 1.81743 9.73871 0.243847 3.67677 3.12458 9.56573 0.37309 1.72577 2.28062 2.54298 2.02555 2.51118 3.6811 3.67679 0.408576 5.76616 1.37904 4.66704 1.78305 2.7899 0.308887 7.57588 1.48042 2.06153 6.56433 4.12219 0.797985 6.49386 0.9236 4.18813 5.86567 0.191401 5.7628 1.24271 1.11476 5.30935 1.08837 4.43591 0.24389 4.22634 2.72654 0.118837 1.94229 3.34705 6.52967 6.99078 1.46908 10.0658 0.250325 0.11229 0.985797 9.46001 0.785072 2.97189 10.8572 4.53416 2.97521 0.860514 2.34045 2.07843 3.63657 0.563551 2.46428 5.87789 3.19255 5.86555 2.7454 0.354147 6.51292 1.21012 0.98546 5.83346 0.910574 3.48649 7.07569 3.0027 8.27449 1.39418 1.10418 7.96866 1.51637 7.06701 2.12609 2.45219 3.31895 0.368817 2.19622 6.85889 0.135122 0.149707 3.04543 0.347584 4.41932 1.59304 4.57549 2.20087 5.03856 5.82329 4.34322 0.666054 3.16556 2.09825 3.7396 3.93145 2.64861 8.65137 0.622048 5.6236 1.25658 2.10725 3.89898 2.30338 5.50555 0.7037 1.1126 5.2582 1.09464 2.8285 6.24613 1.41557 2.4988 7.10396 2.09369 0.71601 6.46075 4.7097 6.8215 1.61777 0.163549 1.46908 6.42671 0.593679 0.438278 3.65704 2.59405 2.4018 4.63429 0.260407 1.85686 4.89764 1.77103 6.56433 2.2742 2.44921 8.54479 0.510671 1.13424 0.35102 2.30357 2.89566 4.43605 2.29003 0.218675 1.902 1.59825 8.8627 5.88436 5.91784 2.52575 4.11657 2.56622 1.67339 2.96089 3.53577 1.57392 0.48315 4.2715 1.83133 4.90526 3.02511 8.62102 1.21238 4.29577 0.802722 4.15123 0.528248 3.82253 1.75653 4.97684 0.868296 3.39742 0.833384 1.18626 0.793944 5.83635 1.1126 3.04629 2.44398 4.74405 4.95078 2.97307 6.49386 0.700764 5.67825 1.39123 5.87789 1.89331 1.43753 2.77038 3.71702 2.80804 6.71533 4.29577 1.86345 2.12118 1.29025 0.370754 7.64876 3.3975 3.74918 7.51417 0.24389 3.02215 5.30213 0.841342 2.14689 7.91532 4.43591 5.83693 6.27652 2.50484 1.21343 0.370754 3.29736 7.24091 2.65631 6.78179 0.178311 0.555691 6.85231 1.84305 2.87559 1.16837 6.62516 0.218698 3.50217 1.28104 1.72804 2.15777 2.30338 7.06307 8.47438 2.34383 0.915257 1.54056 7.9665 6.01274 4.59321 3.97176 3.00164 2.33059 0.716296 5.10332 0.896731 1.21012 8.09273 5.23233 3.06066 0.832997 0.951851 5.44306 0.947056 3.56524 7.24091 6.9695 0.776605 0.828266 3.0305 5.87199 2.09049 1.10704 0.092671 0.910574 3.01542 7.00485 1.39809 1.4985 3.54525 4.05318 4.97911 5.20291 1.89693 1.89803 3.6341 2.13536 1.54609 11.0473 3.05418 10.0528 1.92164 2.48251 5.70308 1.24465 0.806701 0.0373141 10.9989 1.24465 7.43015 0.59702 3.58614 6.70993 4.78319 5.43998 2.76096 3.11022 0.966498 0.590564 6.72335 3.67677 5.50506 2.56912 4.23738 2.45219 1.06565 3.53577 1.4227 4.44787 6.79349 2.01621 1.05365 4.05318 4.64529 1.54525 6.19157 1.60604 2.8285 3.58117 4.4182 2.35511 1.64411 4.1578 0.694221 5.03122 7.29729 0.809686 2.29745 7.80485 1.75661 0.507972 6.91124 0.772184 2.92137 2.35452 1.61184 2.25187 0.253062 1.5591 1.3439 4.9664 3.54446 1.69809 2.93621 0.841342 3.14812 0.807255 3.96425 3.67679 0.761654 6.78718 0.0663754 8.90946 0.733082 0.83696 6.80428 1.01707 2.97189 7.34648 2.39419 5.94641 1.89668 2.23616 0.798879 2.86002 1.10454 1.17257 2.511 2.26197 2.81432 6.00317 0.776605 3.79235 1.67149 0.827939 12.5281 0.203543 3.6134 9.46001 0.323867 2.72714 4.95109 4.73792 0.71438 1.37338 8.82848 5.46996 5.96544 1.23095 0.942289 4.08026 0.942289 6.16492 4.43514 1.82762 2.09825 1.38474 0.291034 5.3093 1.15891 4.02789 3.65704 5.86092 2.2118 2.96089 8.64967 0.634776 1.92164 0.457631 6.59213 1.4227 2.30357 7.14335 2.72211 0.408409 1.2322 9.21366 3.34571 3.79235 6.9695 5.83346 1.93085 7.04488 0.393798 3.78275 4.06757 1.73161 3.69657 4.9664 2.06855 1.07739 3.05418 0.360013 2.88375 0.895691 5.77503 0.733082 6.57856 5.6236 1.23095 5.29033 2.86002 2.7148 6.16492 4.54871 7.26629 0.618286 6.85231 0.895399 0.482126 1.36654 3.14699 2.02555 5.59148 8.46044 2.87559 0.964981 2.86121 3.00164 5.21115 8.01189 2.15777 2.91827 1.98566 6.24771 5.50555 1.07967 6.35074 4.19956 1.80332 4.45034 2.21501 3.97176 0.895135 4.62069 0.840434 7.20373 2.70854 5.81796 0.667451 2.03264 0.858772 2.20005 0.0537418 0.501169 2.76096 4.06138 5.40605 2.58066 0.948066 5.44874 1.43883 5.37462 1.61184 2.37767 3.48932 5.45094 5.01943 3.66776 4.58772 2.28062 4.31763 0.536881 0.213696 3.61679 1.55184 2.05558 2.62408 5.72914 7.62965 4.05162 1.69927 5.23607 4.17781 3.87978 1.51637 0.519448 2.34383 1.43546 1.67687 1.31813 4.00882 7.90596 5.06488 6.45916 2.91548 2.94245 0.555722 7.62965 3.97211 0.741733 1.72782 10.3666 3.37062 6.44449 2.0756 0.867773 1.97749 4.06757 1.97405 4.3642 3.50112 0.845956 8.17712 3.38021 2.05558 3.99805 0.250325 2.24973 6.35074 5.70308 5.37889 7.43015 0.92487 9.39913 1.31813 0.320124 2.29745 3.89316 1.89331 2.46428 2.4988 4.19379 4.43716 3.32926 1.19447 0.203543 1.29582 0.457631 10.9989 0.155197 3.54446 6.22993 2.59488 0.477842 7.41989 2.98242 3.82356 2.7389 1.90398 5.78335 0.191401 1.47967 1.90721 4.06018 2.23986 2.01289 3.77581 0.666054 5.39393 1.21503 6.85889 2.3293 0.948066 2.10247 2.65684 3.5221 7.04488 2.47699 3.05167 2.53988 3.07265 4.76123 3.47229 5.7577 0.37309 2.04625 3.5808 3.66604 2.57413 6.71081 5.01943 1.54324 1.68356 0.131339 4.17721 0.947056 5.21768 9.25479 1.28708 4.53134 3.81092 0.827205 2.4403 2.44398 2.28569 0.979847 6.8234 0.826517 5.13967 4.51905 3.60468 3.40587 1.39803 2.81432 0.168357 7.47699 2.2118 4.40795 0.71601 3.26183 1.54324 0.213696 4.16304 3.42847 5.7253 3.92527 6.78826 0.741733 2.04813 4.85889 4.69338 7.58982 3.52678 3.27185 6.52312 0.149707 10.7215 2.61984 6.66814 3.13142 2.42444 2.32634 0.324123 0.855272 0.584991 0.505872 0.55541 4.16472 6.97848 1.47816 2.55162 11.09 1.02235 3.11088 0.574294 4.41932 1.63195 9.51422 2.21337 5.67506 0.72106 4.89764 3.40378 3.31895 4.23738 0.779777 4.66786 5.78248 3.2217 1.6022 3.34662 3.81092 1.8941 5.21349 5.3774 6.38555 0.787032 10.2863 2.20269 0.981705 2.35511 1.62754 4.34391 2.95424 8.03104 5.3412 1.29654 3.40378 1.85686 5.37426 2.29003 6.75831 2.12554 3.09667 1.24271 0.871449 4.44196 4.32252 4.92461 3.15747 1.23986 1.98566 1.13209 3.46356 2.53274 0.577564 3.34705 0.573759 8.94839 1.99884 1.05861 3.50616 1.64281 3.74918 1.30688 8.29487 4.7745 2.37767 2.35452 3.16927 1.60988 4.67869 0.31298 5.39393 4.34322 1.22569 8.12295 2.14689 2.93621 3.21077 0.593353 6.5561 2.69377 1.41901 9.10445 1.65088 0.528248 7.12651 1.53787 1.13209 1.06757 2.56622 3.17108 5.50506 2.54298 4.58772 3.83635 5.22817 3.14812 5.30213 0.516221 0.477842 4.4182 6.26175 3.05684 5.19713 1.02678 1.08837 4.85852 0.519757 3.42847 1.52331 1.33201 5.83693 0.574294 8.07036 1.38474 3.16556 3.77581 2.19622 0.785072 3.6134 1.19447 4.7611 6.42671 0.330274 6.78002 0.772184 3.69657 2.87311 4.17781 4.76496 2.80971 3.74471 1.8941 4.53134 6.84756 1.56369 2.95424 2.21149 1.58081 5.60073 0.955502 0.257932 2.31907 3.40587 4.51107 8.54479 4.22431 8.17795 0.657246 2.53081 7.51876 1.10704 5.72914 9.70824 1.66236 2.04813 3.97211 5.03856 4.38753 6.27652 1.33201 1.14629 1.77223 4.02853 0.11229 3.99805 1.55184 1.61873 4.92461 2.15536 5.29994 1.87199 3.39693 3.27185 1.39254 2.80971 0.494071 8.0234 3.73112 1.42773 5.18796 0.701447 2.66581 5.45094 3.08943 1.4985 6.7971 1.89668 3.57782 3.92876 0.902405 1.37904 7.23147 3.74109 3.48649 0.092671 7.51876 2.6298 2.87307 1.8844 7.4193 0.653592 0.673698 3.86266 1.36815 4.63273 2.81855 0.851049 4.31464 2.77038 7.9917 0.852459 2.65008 5.21115 3.97176 2.97089 0.607006 5.46996 3.44888 3.97176 2.09833 2.4879 3.64348 5.91784 4.31604 2.09529 0.9236 2.97307 0.238704 0.979847 0.798103 6.23079 0.801431 0.593679 4.7611 3.32926 0.546235 1.47311 3.17883 4.7097 1.2322 0.757828 0.0810937 5.2582 5.83635 5.37218 1.57336 3.5808 5.56285 7.26629 0.809686 10.1662 0.356424 1.14965 1.91126 6.65357 1.62754 3.75299 1.78119 1.31201 3.46356 1.53787 5.60192 1.41557 5.21688 1.27724 6.94546 4.19379 3.53793 6.18768 4.17498 2.53988 1.45384 1.07079 5.14955 5.33035 0.701447 8.26959 0.607006 4.0446 1.10454 5.29033 5.96544 4.26585 5.55549 1.90793 5.81647 1.14222 4.46631 4.63429 2.06153 2.09529 6.73519 0.735004 6.70793 1.13424 1.26143 2.24726 0.560981 4.53427 3.24896 5.49129 1.67149 3.34571 0.98546 0.896731 0.585575 8.24057 0.421922 2.10609 5.14955 2.41839 2.31907 7.30858 0.828266 6.00317 1.39803 0.163549 4.24739 4.19956 2.24973 10.0658 2.42444 7.55954 2.71836 0.218698 1.93929 3.78738 3.93406 3.41651 3.38505 4.97911 1.87532 6.44449 0.773621 2.62408 3.38021 1.07967 1.54987 5.06488 2.01653 9.70824 1.06249 8.65603 0.726388 1.21037 3.52794 6.66814 1.01707 0.678456 6.67577 4.53427 0.947317 10.8572 5.86092 0.438278 0.801431 6.46075 4.40795 1.69014 2.0374 4.70894 1.18423 3.57782 5.94641 4.63013 7.90596 2.06173 0.55441 0.826517 4.6678 0.600039 0.595785 5.20226 0.650774 1.35567 3.12458 6.72335 1.07095 8.62011 2.10247 2.58066 6.80656 0.627087 2.10397 10.7215 0.135122 1.21503 0.31298 1.60253 10.2863 0.257932 3.61219 1.6022 1.47629 3.0305 7.30858 5.70098 3.75299 1.79368 0.802722 6.71533 0.408576 8.90946 0.390427 0.678456 6.80428 0.86178 2.14898 0.338495 2.94465 5.21349 3.74471 1.39254 3.52678 2.10397 0.787032 3.30734 4.35702 0.849889 1.22223 2.70854 5.43998 4.6703 6.1951 3.78738 7.60211 1.09464 0.0810937 3.68461 1.07219 5.35977 1.47967 5.86567 3.16124 0.852508 8.1333 6.16153 0.728905 0.729854 1.37338 0.657514 1.25491 4.26585 0.611701 2.16808 7.00485 3.34976 3.38505 1.20012 0.832997 3.29736 0.430148 5.59446 0.45843 5.20291 0.622048 0.54405 7.9665 2.57822 5.86555 2.44013 0.796789 0.895691 3.06848 2.02303 2.06173 4.00882 9.39913 2.76669 4.07956 2.71472 2.79322 6.4686 0.936298 8.17712 0.296423 3.68461 4.18813 3.09667 4.91573 0.833384 5.70865 7.4193 0.545989 6.22993 3.96425 6.12388 1.73403 5.83391 6.49139 1.43883 3.64742 0.540621 3.89397 6.37265 1.16837 8.01189 2.65008 1.81802 1.02235 1.34292 1.36815 8.51818 2.53274 1.31201 1.01597 5.49533 0.308887 6.79007 2.87522 5.59446 3.6361 4.31606 3.69454 4.34469 0.505872 4.15973 5.57651 2.4403 5.80525 2.2742 2.16239 4.74405 6.22733 0.871449 5.7628 5.78335 2.80652 7.82775 0.667476 1.99884 6.91699 1.46208 2.80376 5.37426 0.260407 4.46631 1.49631 1.29855 1.09712 2.5104 2.94526 2.72211 2.19173 6.20661 1.68988 9.69242 1.01597 1.78119 5.70098 2.80804 0.344641 12.4265 2.06855 1.3439 8.10845 4.52633 4.42488 3.85054 4.21207 0.321767 1.83165 2.12118 2.71472 3.14349 0.639227 2.01289 1.8678 0.657514 6.34719 1.41901 8.94839 1.71494 1.33274 3.30734 4.78319 0.91772 3.92625 2.15536 4.76496 1.28708 6.88493 2.58406 7.47699 0.947113 6.3815 2.80652 0.632981 1.80164 1.48763 5.03309 5.5297 0.627087 1.34093 3.59924 0.33156 7.57588 3.6361 0.430148 6.78179 1.85555 1.54216 2.3335 1.72308 3.58614 1.04155 2.81301 0.424047 8.0234 6.24492 7.20001 2.7454 2.57822 1.54056 0.444375 6.88493 2.28569 3.04629 0.7037 6.24771 1.23986 1.85555 2.65631 3.56524 4.17721 6.94647 6.47359 5.20226 9.73956 0.765961 2.48564 2.25187 5.37462 2.66581 0.524377 1.06273 8.66615 3.94129 7.67859 6.20396 2.15983 4.81299 0.728905 7.69043 0.773621 3.37062 3.78275 4.12035 2.24726 6.46213 1.80164 0.517378 4.57084 0.851049 2.69098 2.29742 5.47373 3.82253 0.398888 3.45739 1.59304 0.195308 4.85889 1.66236 2.01653 2.94245 0.621282 8.06999 0.178311 4.06018 1.30421 4.17591 2.0238 6.7738 0.516221 3.02215 1.32154 1.06249 2.61984 3.06291 7.41989 2.97521 5.21124 1.75661 2.52349 2.10725 3.04339 0.238704 4.95078 1.79803 4.6678 6.8234 6.8215 3.17883 0.802973 5.03122 7.01395 5.23233 0.680727 2.8756 4.73792 5.21577 1.54987 4.45034 2.11696 2.66114 0.990107 6.45916 1.32154 7.91532 2.69377 0.65828 8.65603 4.82067 5.1113 1.87155 2.36255 1.10416 9.68048 1.21343 4.37334 0.292641 4.21207 3.24332 7.64876 1.5666 0.701668 4.71352 1.72504 1.64411 0.981705 1.07819 6.69008 1.79803 5.67825 1.2807 6.24492 0.915257 0.519448 4.63013 0.796789 4.01989 1.71593 1.33714 3.94348 0.86178 0.83696 5.77503 2.79322 6.34719 3.34976 3.01542 1.05365 1.59991 3.39693 8.84539 3.04543 6.52312 7.29729 0.802973 1.47311 1.48843 10.1662 3.59924 6.06987 1.07267 5.7253 0.519757 2.54662 0.48126 7.86281 0.855272 1.78028 1.45093 2.51118 3.14699 0.524377 6.7971 1.39809 2.16808 3.5702 7.03328 0.360875 3.07265 4.17498 2.13648 2.511 5.49129 0.482126 5.30799 0.781852 0.330274 5.23607 7.66517 2.08349 7.31216 0.421922 0.789482 0.953117 6.22535 2.15983 2.86882 6.15694 0.398888 1.18626 4.91573 4.24788 1.72308 3.57847 2.08349 7.30338 0.806701 6.70993 1.55451 9.73956 0.595785 0.826618 4.37993 5.20739 1.29856 1.87155 5.59148 5.76616 2.14898 3.94348 0.88745 0.433752 4.66786 1.72853 6.12388 0.807255 5.22817 3.39742 7.1103 2.06945 0.884296 0.653592 5.70865 3.14349 4.07956 3.32241 1.902 9.3913 3.02996 3.7396 1.82762 3.45098 8.15978 3.50616 1.04851 3.53793 1.44815 2.72654 6.75859 0.968315 8.8627 1.04785 0.354147 7.20001 1.2807 0.700764 0.797985 2.29742 5.82329 1.77223 2.7562 1.74715 3.51302 1.13622 1.93929 7.06307 3.89898 7.60211 0.393574 1.07095 5.5297 1.09852 2.47699 1.49256 6.03458 1.13622 