<VTKFile type="UnstructuredGrid" version="0.1">
<UnstructuredGrid>
<Piece  NumberOfPoints="    2442" NumberOfCells="     407">
<Points>
<DataArray type="Float64" NumberOfComponents="3" format="ascii">
47.0146 -41.9115 0.0
47.2169 -41.3184 0.0
42.0876 -37.3772 0.0
40.5712 -37.8161 0.0
39.7839 -39.0482 0.0
45.0595 -43.5147 0.0
28.4911 43.8037 0.0
27.1211 43.8629 0.0
26.1363 41.2491 0.0
26.4319 37.6064 0.0
27.1382 37.0391 0.0
31.737 37.0954 0.0
32.0056 38.4592 0.0
34.8393 -25.9232 0.0
34.1747 -21.598 0.0
27.3534 -24.5187 0.0
26.2782 -26.4358 0.0
27.3425 -27.6245 0.0
34.0853 -26.1205 0.0
-2.46641 22.1072 0.0
-6.95432 18.5105 0.0
-6.43745 15.4311 0.0
-1.42615 18.3421 0.0
-0.130276 19.6191 0.0
-37.0533 -46.6785 0.0
-34.5131 -49.5633 0.0
-31.7988 -48.522 0.0
-31.9205 -45.4476 0.0
-32.7915 -43.6152 0.0
15.7945 -24.7148 0.0
13.4943 -23.2414 0.0
9.46386 -23.7869 0.0
5.94809 -25.2354 0.0
5.48599 -26.186 0.0
8.31631 -28.3433 0.0
-44.9221 -10.104 0.0
-42.1693 -13.4842 0.0
-41.4267 -13.8429 0.0
-39.9913 -13.4364 0.0
-40.5415 -9.21775 0.0
-41.5619 -5.84309 0.0
16.6863 -24.235 0.0
18.6163 -21.1104 0.0
16.2814 -16.1805 0.0
12.0539 -16.7721 0.0
14.0122 -22.6808 0.0
16.3124 -24.1543 0.0
-41.193 37.5758 0.0
-38.3578 44.1326 0.0
-38.1655 45.4539 0.0
-38.5029 47.0733 0.0
-40.197 46.7666 0.0
-41.7754 45.7643 0.0
-43.0171 43.1933 0.0
21.3071 -47.4339 0.0
17.004 -46.6511 0.0
16.166 -47.1442 0.0
15.2965 -50.7855 0.0
17.2679 -52.5616 0.0
17.688 -52.5823 0.0
21.0988 -51.8912 0.0
3.23733 18.9677 0.0
3.11684 18.2497 0.0
7.49632 13.6521 0.0
8.75618 13.439 0.0
9.70734 13.4522 0.0
9.89661 18.0992 0.0
9.05053 18.6149 0.0
-50.745 -20.0295 0.0
-55.7037 -17.0763 0.0
-57.2895 -18.9017 0.0
-57.1894 -22.4714 0.0
-55.8389 -25.8579 0.0
-55.696 -26.0085 0.0
-53.8464 -23.8383 0.0
24.5484 28.4428 0.0
24.8195 29.1026 0.0
21.2013 36.9739 0.0
18.8292 37.3786 0.0
18.0009 35.6246 0.0
17.987 34.5815 0.0
-13.7876 -12.1279 0.0
-14.8108 -15.2507 0.0
-13.5405 -16.1378 0.0
-8.87695 -17.7 0.0
-7.6799 -16.7035 0.0
-7.28961 -15.928 0.0
-8.45981 -13.3995 0.0
45.25 -3.68939 0.0
41.1516 -3.1565 0.0
39.65 -9.34588 0.0
42.2541 -9.13162 0.0
45.7483 -4.2742 0.0
-18.3248 -41.2265 0.0
-19.5937 -40.8702 0.0
-19.771 -40.8252 0.0
-24.1379 -42.4128 0.0
-23.6887 -46.2526 0.0
-20.2059 -48.7247 0.0
-19.8816 -48.706 0.0
-19.0038 -44.6387 0.0
40.5907 -17.913 0.0
38.1146 -18.2741 0.0
37.9615 -24.9138 0.0
41.515 -21.9854 0.0
40.7869 -18.3152 0.0
-49.9422 22.4255 0.0
-52.885 22.2135 0.0
-53.1823 21.712 0.0
-54.4241 16.9013 0.0
-51.0881 14.515 0.0
-49.1472 15.5491 0.0
49.2683 -8.04217 0.0
48.6377 -5.87225 0.0
47.1369 -4.56444 0.0
46.0677 -4.5289 0.0
42.5735 -9.38631 0.0
42.2596 -11.8749 0.0
42.5821 -13.5054 0.0
41.4846 -12.2296 0.0
41.7985 -9.74099 0.0
39.1944 -9.95526 0.0
34.6793 -11.2857 0.0
34.3186 -12.6087 0.0
34.7248 -15.2426 0.0
-41.5314 -3.38209 0.0
-39.2169 -3.07503 0.0
-39.4591 3.18509 0.0
-41.5638 4.95605 0.0
-42.1987 4.27609 0.0
-42.4639 1.60576 0.0
-42.4728 -2.581 0.0
-23.4421 26.524 0.0
-25.9347 23.8017 0.0
-26.7344 22.3269 0.0
-25.9994 19.0911 0.0
-23.5355 18.9253 0.0
-22.1716 21.8763 0.0
34.5398 34.7416 0.0
37.4852 37.7076 0.0
35.686 43.4812 0.0
32.6381 38.3293 0.0
32.3694 36.9655 0.0
49.4451 24.7299 0.0
50.2244 24.9649 0.0
50.8578 30.0956 0.0
50.5685 30.9241 0.0
49.7475 32.1201 0.0
47.2433 33.02 0.0
-54.5792 8.71401 0.0
-54.6215 9.50902 0.0
-56.3552 13.923 0.0
-58.2508 12.3766 0.0
-59.1149 10.9007 0.0
-57.2783 6.439 0.0
-48.4696 22.758 0.0
-49.4987 22.3959 0.0
-48.7037 15.5195 0.0
-45.7853 15.2296 0.0
-43.4368 15.7538 0.0
-0.944891 -45.3729 0.0
-0.0061399 -45.5612 0.0
0.413435 -37.5697 0.0
0.220866 -37.434 0.0
-3.11217 -38.6641 0.0
-12.467 50.4172 0.0
-13.7488 50.4873 0.0
-14.9542 43.3904 0.0
-14.6549 42.5298 0.0
-12.4598 43.1807 0.0
-11.2978 48.948 0.0
-11.7395 50.0122 0.0
-45.8479 14.6621 0.0
-48.7663 14.9519 0.0
-50.7073 13.9178 0.0
-49.7143 10.827 0.0
-45.169 9.90067 0.0
-29.2199 -43.5065 0.0
-31.4721 -45.4388 0.0
-31.3505 -48.5132 0.0
-29.8576 -49.3369 0.0
-29.6731 -49.3976 0.0
-26.6902 -47.6149 0.0
-55.2354 0.9399 0.0
-56.549 2.67881 0.0
-62.6406 4.90519 0.0
-63.0701 1.23516 0.0
-59.9737 -2.35846 0.0
7.02647 46.9437 0.0
3.96631 48.9174 0.0
1.93183 47.8307 0.0
-3.41127 41.1544 0.0
-2.0461 40.567 0.0
9.94806 27.8967 0.0
9.97592 25.9617 0.0
13.7418 22.5711 0.0
14.1217 22.8473 0.0
14.4833 23.2301 0.0
14.7127 26.7502 0.0
13.2332 28.8434 0.0
10.5397 29.0137 0.0
8.02528 46.4012 0.0
7.09569 46.679 0.0
-1.97688 40.3023 0.0
-0.315091 38.8007 0.0
-0.124811 38.6822 0.0
-42.1964 -41.7348 0.0
-42.1223 -42.274 0.0
-40.4481 -44.4235 0.0
-37.8944 -45.8462 0.0
-36.384 -40.1322 0.0
-42.661 8.29715 0.0
-45.1203 9.47405 0.0
-49.6656 10.4004 0.0
-49.9972 8.96573 0.0
-49.5511 5.84788 0.0
-5.34968 41.1498 0.0
-3.89805 41.1563 0.0
1.44505 47.8326 0.0
-5.46584 47.3964 0.0
-31.1871 -17.8912 0.0
-33.8958 -15.0789 0.0
-36.9524 -13.9578 0.0
-38.0323 -14.3631 0.0
-37.3517 -16.1548 0.0
-34.9419 -20.1975 0.0
-27.1011 31.9559 0.0
-27.8646 32.3332 0.0
-30.7678 31.8407 0.0
-30.7768 26.92 0.0
-27.6951 23.1547 0.0
-27.1478 22.9194 0.0
-26.3481 24.3942 0.0
11.5803 39.6852 0.0
13.8876 40.2801 0.0
13.214 46.2215 0.0
10.936 45.8106 0.0
9.99375 44.0711 0.0
-25.2857 -55.1085 0.0
-24.2736 -55.1546 0.0
-20.4217 -49.3669 0.0
-23.9045 -46.8948 0.0
-24.4057 -47.2423 0.0
47.4424 -41.0566 0.0
47.748 -35.2907 0.0
45.0841 -35.7701 0.0
42.313 -37.1154 0.0
32.253 14.2232 0.0
35.6741 5.49578 0.0
37.5292 10.2906 0.0
37.4798 10.4026 0.0
-21.1371 -16.5541 0.0
-23.41 -15.092 0.0
-25.9613 -13.5843 0.0
-26.776 -19.1363 0.0
-25.3204 -19.7842 0.0
9.55665 43.8115 0.0
2.40437 39.0511 0.0
9.9126 38.3728 0.0
11.1432 39.4255 0.0
26.7584 2.68796 0.0
26.0897 3.06072 0.0
20.3427 -1.62226 0.0
20.0705 -4.5344 0.0
21.4517 -5.45566 0.0
24.9266 -3.40801 0.0
12.057 -14.213 0.0
16.2228 -10.8771 0.0
13.2302 -9.61585 0.0
10.4995 -11.4931 0.0
9.66055 -12.1765 0.0
9.51006 -15.0988 0.0
10.6133 -15.2921 0.0
26.7514 51.4991 0.0
26.8587 50.6106 0.0
32.3419 45.6324 0.0
34.8672 45.8623 0.0
34.5552 48.1147 0.0
30.4413 50.3131 0.0
-7.70771 -42.9814 0.0
-8.47791 -43.4632 0.0
-6.59826 -50.3722 0.0
-4.50062 -49.1951 0.0
-1.82358 -45.9894 0.0
26.1301 -19.0056 0.0
23.6734 -17.1177 0.0
19.234 -21.2458 0.0
17.304 -24.3703 0.0
17.738 -24.9505 0.0
19.9546 -24.9736 0.0
35.748 16.6376 0.0
37.6108 11.843 0.0
42.7529 17.7964 0.0
-35.1069 6.42902 0.0
-34.8927 6.8907 0.0
-35.0261 9.2284 0.0
-37.7327 10.4816 0.0
-40.1063 11.057 0.0
-41.3515 8.19472 0.0
-41.1954 7.14456 0.0
58.759 20.5817 0.0
56.1972 23.289 0.0
52.9419 22.8263 0.0
53.0869 19.1443 0.0
0.248083 -45.6533 0.0
0.588742 -45.7252 0.0
1.91476 -45.1864 0.0
2.97419 -43.8728 0.0
2.83548 -39.8035 0.0
2.41459 -38.8315 0.0
0.667658 -37.6618 0.0
-34.6881 33.6871 0.0
-37.2118 31.7136 0.0
-33.9813 26.2004 0.0
-31.294 27.1367 0.0
-31.285 32.0574 0.0
-32.6866 33.6484 0.0
14.5263 -56.9139 0.0
16.7088 -52.9831 0.0
14.7374 -51.207 0.0
10.8459 -51.8796 0.0
9.14647 -52.8713 0.0
8.68657 -54.732 0.0
24.2033 25.3296 0.0
22.3086 21.5385 0.0
29.2612 19.7555 0.0
28.8981 20.4789 0.0
26.6261 24.9598 0.0
25.2011 25.8162 0.0
40.3711 0.647549 0.0
41.7995 1.60902 0.0
47.4731 9.59616 0.0
46.8892 10.1209 0.0
41.9605 5.49792 0.0
39.6789 1.88556 0.0
13.491 -3.96569 0.0
11.0467 -2.63003 0.0
7.96928 -8.12486 0.0
9.16189 -11.1616 0.0
9.49101 -11.6373 0.0
10.33 -10.9539 0.0
25.4319 -3.24391 0.0
27.7923 -4.11147 0.0
31.7936 2.68501 0.0
30.8967 3.34334 0.0
28.8475 3.461 0.0
27.2638 2.85206 0.0
41.8793 -14.2174 0.0
41.5567 -12.5869 0.0
34.797 -15.5999 0.0
34.775 -15.7897 0.0
34.6418 -16.9544 0.0
35.6681 -18.0101 0.0
38.0197 -17.7466 0.0
40.4957 -17.3855 0.0
41.3937 -16.2097 0.0
19.8081 -32.9469 0.0
19.4405 -32.2461 0.0
15.7973 -29.8017 0.0
11.4667 -31.8164 0.0
11.9009 -33.3583 0.0
-7.0263 -17.3702 0.0
-8.22335 -18.3667 0.0
-8.14395 -19.367 0.0
-3.03914 -25.6481 0.0
-2.06018 -26.1902 0.0
-1.24333 -22.06 0.0
-6.10308 25.3916 0.0
-9.27587 25.2591 0.0
-13.9908 16.6786 0.0
-12.983 15.2314 0.0
-10.8621 17.0471 0.0
45.571 14.4369 0.0
41.2957 11.1487 0.0
42.0385 6.03653 0.0
46.9672 10.6595 0.0
46.277 13.2595 0.0
-38.8344 -3.19724 0.0
-35.1103 -3.54865 0.0
-34.4804 -2.08453 0.0
-35.8668 1.08548 0.0
-39.0766 3.06288 0.0
-1.28076 -3.86212 0.0
-1.14878 -3.78578 0.0
-5.11719 4.80121 0.0
-6.27806 4.65246 0.0
-6.99703 0.438172 0.0
27.6376 14.2515 0.0
27.9661 12.5082 0.0
30.9084 11.0031 0.0
30.8651 16.6737 0.0
30.6222 18.2553 0.0
30.0679 18.3888 0.0
27.3767 15.914 0.0
51.3719 17.6059 0.0
52.5577 17.6454 0.0
52.6005 19.132 0.0
52.4555 22.8141 0.0
50.3314 24.1531 0.0
49.5522 23.9181 0.0
48.3176 23.5032 0.0
46.9565 22.179 0.0
-25.7708 -55.0498 0.0
-25.6107 -55.1007 0.0
-24.7307 -47.2345 0.0
-26.4042 -48.0144 0.0
-29.3871 -49.7971 0.0
-23.3514 -28.7806 0.0
-22.4849 -30.8382 0.0
-21.1874 -30.9334 0.0
-18.918 -28.0984 0.0
-19.0819 -24.0073 0.0
-19.1252 -23.4475 0.0
-19.572 -22.8501 0.0
-22.3595 -22.2381 0.0
-26.4511 43.9393 0.0
-26.682 41.3657 0.0
-25.4634 40.4004 0.0
-21.991 39.8159 0.0
-20.3908 41.3545 0.0
-21.0061 44.8593 0.0
49.1918 -5.28511 0.0
50.3872 -4.81742 0.0
54.1273 -3.11546 0.0
52.3787 0.619594 0.0
47.691 -3.97731 0.0
-48.422 -15.2328 0.0
-55.1385 -14.857 0.0
-55.3721 -16.66 0.0
-50.4133 -19.6133 0.0
-48.6156 -19.6543 0.0
-8.38026 -56.1886 0.0
-5.38569 -61.3502 0.0
-1.98157 -58.7288 0.0
-1.96611 -58.3566 0.0
-3.3885 -56.8404 0.0
-37.8481 44.0131 0.0
-36.5811 39.8541 0.0
-35.9241 38.5131 0.0
-32.5461 41.4499 0.0
-33.3163 42.8372 0.0
-37.6558 45.3344 0.0
-19.8277 -39.8757 0.0
-19.6504 -39.9207 0.0
-20.8502 -32.2204 0.0
-21.2506 -31.7657 0.0
-22.5481 -31.6704 0.0
-24.0788 -32.853 0.0
-24.0667 -33.8128 0.0
-24.0649 -33.9621 0.0
46.9616 13.3144 0.0
47.6518 10.7144 0.0
48.2357 10.1897 0.0
50.0387 8.48871 0.0
51.5431 8.66373 0.0
54.8715 10.6888 0.0
54.4616 12.286 0.0
57.4631 9.24934 0.0
55.2167 10.3118 0.0
51.8882 8.28675 0.0
52.3352 5.76584 0.0
53.1537 2.89075 0.0
22.1878 -11.7141 0.0
21.9374 -11.3081 0.0
12.5245 -14.3856 0.0
11.0808 -15.4647 0.0
12.2034 -16.1835 0.0
16.4308 -15.5919 0.0
21.7715 -13.2628 0.0
10.7654 -51.2728 0.0
14.6569 -50.6003 0.0
[...]
<CellData Scalars="cell variable 4" Vectors="cell vector">
<DataArray type="Float64" NumberOfComponents="3" Name="cell vector" format="ascii">
0 0 0
0 0 0
0 0 0
0 0 0
0 0 0
0 0 0
0 0 0
0 0 0
0 0 0
0 0 0
0 0 0
0 0 0
0 0 0
0 0 0
0 0 0
0 0 0
0 0 0
0 0 0
0 0 0
0 0 0
0 0 0
0 0 0
0 0 0
0 0 0
0 0 0
0 0 0
0 0 0
0 0 0
0 0 0
0 0 0
0 0 0
0 0 0
0 0 0
0 0 0
0 0 0
0 0 0
0 0 0
0 0 0
0 0 0
0 0 0
0 0 0
0 0 0
0 0 0
0 0 0
0 0 0
0 0 0
0 0 0
0 0 0
0 0 0
0 0 0
0 0 0
0 0 0
0 0 0
0 0 0
0 0 0
0 0 0
0 0 0
0 0 0
0 0 0
0 0 0
0 0 0
0 0 0
0 0 0
0 0 0
0 0 0
0 0 0
0 0 0
0 0 0
0 0 0
0 0 0
0 0 0
0 0 0
0 0 0
0 0 0
0 0 0
0 0 0
0 0 0
0 0 0
0 0 0
0 0 0
0 0 0
0 0 0
0 0 0
0 0 0
0 0 0
0 0 0
0 0 0
0 0 0
0 0 0
0 0 0
0 0 0
0 0 0
0 0 0
0 0 0
0 0 0
0 0 0
0 0 0
0 0 0
0 0 0
0 0 0
0 0 0
0 0 0
0 0 0
0 0 0
0 0 0
0 0 0
0 0 0
0 0 0
0 0 0
0 0 0
0 0 0
0 0 0
0 0 0
0 0 0
0 0 0
0 0 0
0 0 0
0 0 0
0 0 0
0 0 0
0 0 0
0 0 0
0 0 0
0 0 0
0 0 0
0 0 0
0 0 0
0 0 0
0 0 0
0 0 0
0 0 0
0 0 0
0 0 0
0 0 0
0 0 0
0 0 0
0 0 0
0 0 0
0 0 0
0 0 0
0 0 0
0 0 0
0 0 0
0 0 0
0 0 0
0 0 0
0 0 0
0 0 0
0 0 0
0 0 0
0 0 0
0 0 0
0 0 0
0 0 0
0 0 0
0 0 0
0 0 0
0 0 0
0 0 0
0 0 0
0 0 0
0 0 0
0 0 0
0 0 0
0 0 0
0 0 0
0 0 0
0 0 0
0 0 0
0 0 0
0 0 0
0 0 0
0 0 0
0 0 0
0 0 0
0 0 0
0 0 0
0 0 0
0 0 0
0 0 0
0 0 0
0 0 0
0 0 0
0 0 0
0 0 0
0 0 0
0 0 0
0 0 0
0 0 0
0 0 0
0 0 0
0 0 0
0 0 0
0 0 0
0 0 0
0 0 0
0 0 0
0 0 0
0 0 0
0 0 0
0 0 0
0 0 0
0 0 0
0 0 0
0 0 0
0 0 0
0 0 0
0 0 0
0 0 0
0 0 0
0 0 0
0 0 0
0 0 0
0 0 0
0 0 0
0 0 0
0 0 0
0 0 0
0 0 0
0 0 0
0 0 0
0 0 0
0 0 0
0 0 0
0 0 0
0 0 0
0 0 0
0 0 0
0 0 0
0 0 0
0 0 0
0 0 0
0 0 0
0 0 0
0 0 0
0 0 0
0 0 0
0 0 0
0 0 0
0 0 0
0 0 0
0 0 0
0 0 0
0 0 0
0 0 0
0 0 0
0 0 0
0 0 0
0 0 0
0 0 0
0 0 0
0 0 0
0 0 0
0 0 0
0 0 0
0 0 0
0 0 0
0 0 0
0 0 0
0 0 0
0 0 0
0 0 0
0 0 0
0 0 0
0 0 0
0 0 0
0 0 0
0 0 0
0 0 0
0 0 0
0 0 0
0 0 0
0 0 0
0 0 0
0 0 0
0 0 0
0 0 0
0 0 0
0 0 0
0 0 0
0 0 0
0 0 0
0 0 0
0 0 0
0 0 0
0 0 0
0 0 0
0 0 0
0 0 0
0 0 0
0 0 0
0 0 0
0 0 0
0 0 0
0 0 0
0 0 0
0 0 0
0 0 0
0 0 0
0 0 0
0 0 0
0 0 0
0 0 0
0 0 0
0 0 0
0 0 0
0 0 0
0 0 0
0 0 0
0 0 0
0 0 0
0 0 0
0 0 0
0 0 0
0 0 0
0 0 0
0 0 0
0 0 0
0 0 0
0 0 0
0 0 0
0 0 0
0 0 0
0 0 0
0 0 0
0 0 0
0 0 0
0 0 0
0 0 0
0 0 0
0 0 0
0 0 0
0 0 0
0 0 0
0 0 0
0 0 0
0 0 0
0 0 0
0 0 0
0 0 0
0 0 0
0 0 0
0 0 0
0 0 0
0 0 0
0 0 0
0 0 0
0 0 0
0 0 0
0 0 0
0 0 0
0 0 0
0 0 0
0 0 0
0 0 0
0 0 0
0 0 0
0 0 0
0 0 0
0 0 0
0 0 0
0 0 0
0 0 0
0 0 0
0 0 0
0 0 0
0 0 0
0 0 0
0 0 0
0 0 0
0 0 0
0 0 0
0 0 0
0 0 0
0 0 0
0 0 0
0 0 0
0 0 0
0 0 0
0 0 0
0 0 0
0 0 0
0 0 0
0 0 0
0 0 0
0 0 0
0 0 0
0 0 0
0 0 0
0 0 0
0 0 0
0 0 0
0 0 0
0 0 0
0 0 0
0 0 0
0 0 0
0 0 0
0 0 0
0 0 0
0 0 0
0 0 0
0 0 0
0 0 0
0 0 0
0 0 0
0 0 0
</DataArray>
<DataArray type="Float64" Name="cell vector length" format="ascii">
0 0 0 0 0 0 0 0 0 0 0 0 0 0 0 0 0 0 0 0 0 0 0 0 0 0 0 0 0 0 0 0 0 0 0 0 0 0 0 0 0 0 0 0 0 0 0 0 0 0 0 0 0 0 0 0 0 0 0 0 0 0 0 0 0 0 0 0 0 0 0 0 0 0 0 0 0 0 0 0 0 0 0 0 0 0 0 0 0 0 0 0 0 0 0 0 0 0 0 0 0 0 0 0 0 0 0 0 0 0 0 0 0 0 0 0 0 0 0 0 0 0 0 0 0 0 0 0 0 0 0 0 0 0 0 0 0 0 0 0 0 0 0 0 0 0 0 0 0 0 0 0 0 0 0 0 0 0 0 0 0 0 0 0 0 0 0 0 0 0 0 0 0 0 0 0 0 0 0 0 0 0 0 0 0 0 0 0 0 0 0 0 0 0 0 0 0 0 0 0 0 0 0 0 0 0 0 0 0 0 0 0 0 0 0 0 0 0 0 0 0 0 0 0 0 0 0 0 0 0 0 0 0 0 0 0 0 0 0 0 0 0 0 0 0 0 0 0 0 0 0 0 0 0 0 0 0 0 0 0 0 0 0 0 0 0 0 0 0 0 0 0 0 0 0 0 0 0 0 0 0 0 0 0 0 0 0 0 0 0 0 0 0 0 0 0 0 0 0 0 0 0 0 0 0 0 0 0 0 0 0 0 0 0 0 0 0 0 0 0 0 0 0 0 0 0 0 0 0 0 0 0 0 0 0 0 0 0 0 0 0 0 0 0 0 0 0 0 0 0 0 0 0 0 0 0 0 0 0 0 0 0 0 0 0 0 0 0 0 0 0 0 0 0 0 0 0 0 0 0 0 0 0 0 0 0 0 0 0 0 0 0 0 0 0 0 0 0 0 0 0 0 0 0 0 0 0 
</DataArray>
<DataArray type="Float64" Name="cell variable 4" format="ascii">
0.316217 0.434405 0.657465 1.07467 0.437452 0.94865 0.542818 0.94865 0.371127 0.399988 1.14226 0.479217 0.790107 1.04461 0.573608 0.66381 0.573608 0.495708 0.573608 0.573608 0.542818 0.99432 0.511974 0.511974 0.332003 0.495708 0.789941 0.503886 0.495708 0.437452 0.332003 0.626025 0.980966 0.626025 0.437452 0.495708 0.36504 0.631062 0.673042 0.626025 0.393247 0.316217 0.848855 0.919422 0.626025 1.10185 1.11547 0.434405 0.514292 0.657465 0.848855 0.8063 0.50937 0.789941 0.673042 0.442722 1.06245 0.736473 1.11547 0.912892 0.573608 0.708918 1.04461 1.07467 0.736473 0.542818 1.12037 0.848855 0.50937 0.393247 0.631062 0.503886 0.45141 0.542818 0.514292 0.371127 0.66381 0.50937 0.45141 1.11547 0.442722 0.708918 0.495708 0.790107 0.45141 0.399988 1.04461 1.10185 1.14226 0.371127 0.393381 0.708918 0.36504 0.313432 0.980966 0.980966 0.763876 0.919422 0.503886 0.542818 0.503886 1.04461 0.919422 0.313432 0.631062 0.919422 0.479217 0.542818 0.434405 0.912892 0.542818 0.790107 0.763876 0.673042 0.479217 0.673042 0.542818 0.657465 1.11547 0.789941 0.657465 0.511974 0.399988 0.343308 0.393381 0.673042 0.32239 0.573608 0.99432 0.514292 0.514292 0.763876 0.789941 0.393381 0.66381 1.06245 0.50937 0.789941 1.04461 0.789941 0.790107 1.00681 1.12037 0.33356 0.542818 0.980966 0.66381 0.99432 0.32239 0.848855 0.511974 0.980966 0.313432 0.919422 1.00681 0.332003 0.912892 0.790107 0.542818 1.06245 1.07467 0.94865 0.848855 1.06245 0.511974 0.763876 0.657465 0.434405 1.11547 0.36504 0.27464 0.919422 0.573608 0.371127 0.848855 0.313432 1.00681 1.00681 0.343308 0.371127 1.12037 1.00681 1.00681 0.657465 0.442722 0.437452 0.657465 1.11547 0.313432 0.848855 0.542818 0.912892 1.07467 0.399988 0.50937 0.789941 0.94865 0.763876 0.8063 0.919422 0.790107 0.90618 0.736473 0.657465 0.631062 0.50937 0.45141 0.708918 0.763876 0.442722 0.514292 0.673042 0.631062 0.495708 0.657465 0.36504 0.316217 0.673042 0.573608 1.07467 1.04461 0.316217 0.434405 0.45141 0.343308 0.8063 0.511974 0.332003 0.437452 0.763876 0.316217 0.90618 0.848855 1.10185 1.04461 0.919422 1.10185 0.479217 0.45141 0.631062 0.99432 0.23011 0.343308 1.11547 0.919422 0.399988 0.90618 0.736473 0.36504 1.07467 1.10185 0.573608 0.626025 1.14226 0.316217 0.763876 1.10185 0.45141 0.442722 0.437452 1.11547 0.514292 0.479217 0.45141 0.36504 0.631062 1.14226 0.912892 0.437452 0.919422 1.11547 0.789941 0.631062 0.542818 0.503886 0.631062 0.36504 0.631062 0.94865 0.371127 0.187543 0.736473 0.8063 0.912892 0.789941 0.631062 0.573608 0.626025 0.50937 1.00681 0.912892 1.14226 0.94865 0.371127 0.442722 0.8063 0.66381 1.12037 0.66381 0.673042 0.912892 0.790107 1.12037 0.334198 0.187543 0.848855 0.33356 0.66381 0.434405 0.90618 0.631062 0.542818 1.12037 1.07467 0.912892 0.399988 1.10185 1.11547 0.980966 0.8063 0.631062 0.32239 0.511974 0.399988 0.332003 0.316217 0.542818 1.14226 0.573608 0.33356 1.04461 0.66381 0.708918 0.399988 0.626025 0.479217 0.90618 0.495708 0.36504 0.514292 0.542818 0.249242 1.00681 0.393381 0.99432 1.06245 0.8063 0.848855 0.99432 0.434405 0.657465 0.573608 0.919422 0.442722 0.399988 0.789941 0.514292 0.8063 0.495708 1.14226 1.12037 0.343308 0.657465 0.919422 0.919422 0.763876 0.848855 0.313432 0.789941 1.11547 0.980966 0.442722 0.434405 1.10185 0.90618 0.790107 1.12037 0.393247 0.673042 0.626025 0.66381 0.511974 1.06245 0.514292 0.542818 0.919422 0.626025 0.90618 1.14226 0.631062 0.626025 1.04461 0.90618 0.371127 0.334198 0.919422 0.66381 0.511974 1.06245 0.399988 1.07467 1.11547 0.790107 0.514292 0.789941 0.912892 0.631062 
</DataArray>
<DataArray type="Float64" Name="cell variable 5" format="ascii">
0.0909148 0.0503251 0.0226112 0.00858434 0.0496613 0.0109898 0.0328244 0.0109898 0.0676886 0.0588268 0.00760594 0.0417277 0.0157662 0.00908091 0.0294962 0.0221905 0.0294962 0.0391044 0.0294962 0.0294962 0.0328244 0.0100133 0.0367488 0.0367488 0.0831765 0.0391044 0.0157727 0.037893 0.0391044 0.0496613 0.0831765 0.0248813 0.0102849 0.0248813 0.0496613 0.0391044 0.0698059 0.0244954 0.021599 0.0248813 0.0607373 0.0909148 0.0136882 0.0116913 0.0248813 0.00816951 0.00797274 0.0503251 0.0364304 0.0226112 0.0136882 0.0151488 0.0371116 0.0157727 0.021599 0.0485429 0.00878122 0.0181031 0.00797274 0.0118572 0.0294962 0.0195097 0.00908091 0.00858434 0.0181031 0.0328244 0.00790366 0.0136882 0.0371116 0.0607373 0.0244954 0.037893 0.0467791 0.0328244 0.0364304 0.0676886 0.0221905 0.0371116 0.0467791 0.00797274 0.0485429 0.0195097 0.0391044 0.0157662 0.0467791 0.0588268 0.00908091 0.00816951 0.00760594 0.0676886 0.0606986 0.0195097 0.0698059 0.0923878 0.0102849 0.0102849 0.016849 0.0116913 0.037893 0.0328244 0.037893 0.00908091 0.0116913 0.0923878 0.0244954 0.0116913 0.0417277 0.0328244 0.0503251 0.0118572 0.0328244 0.0157662 0.016849 0.021599 0.0417277 0.021599 0.0328244 0.0226112 0.00797274 0.0157727 0.0226112 0.0367488 0.0588268 0.0782104 0.0606986 0.021599 0.0877689 0.0294962 0.0100133 0.0364304 0.0364304 0.016849 0.0157727 0.0606986 0.0221905 0.00878122 0.0371116 0.0157727 0.00908091 0.0157727 0.0157662 0.00976872 0.00790366 0.0824658 0.0328244 0.0102849 0.0221905 0.0100133 0.0877689 0.0136882 0.0367488 0.0102849 0.0923878 0.0116913 0.00976872 0.0831765 0.0118572 0.0157662 0.0328244 0.00878122 0.00858434 0.0109898 0.0136882 0.00878122 0.0367488 0.016849 0.0226112 0.0503251 0.00797274 0.0698059 0.117059 0.0116913 0.0294962 0.0676886 0.0136882 0.0923878 0.00976872 0.00976872 0.0782104 0.0676886 0.00790366 0.00976872 0.00976872 0.0226112 0.0485429 0.0496613 0.0226112 0.00797274 0.0923878 0.0136882 0.0328244 0.0118572 0.00858434 0.0588268 0.0371116 0.0157727 0.0109898 0.016849 0.0151488 0.0116913 0.0157662 0.0120314 0.0181031 0.0226112 0.0244954 0.0371116 0.0467791 0.0195097 0.016849 0.0485429 0.0364304 0.021599 0.0244954 0.0391044 0.0226112 0.0698059 0.0909148 0.021599 0.0294962 0.00858434 0.00908091 0.0909148 0.0503251 0.0467791 0.0782104 0.0151488 0.0367488 0.0831765 0.0496613 0.016849 0.0909148 0.0120314 0.0136882 0.00816951 0.00908091 0.0116913 0.00816951 0.0417277 0.0467791 0.0244954 0.0100133 0.158855 0.0782104 0.00797274 0.0116913 0.0588268 0.0120314 0.0181031 0.0698059 0.00858434 0.00816951 0.0294962 0.0248813 0.00760594 0.0909148 0.016849 0.00816951 0.0467791 0.0485429 0.0496613 0.00797274 0.0364304 0.0417277 0.0467791 0.0698059 0.0244954 0.00760594 0.0118572 0.0496613 0.0116913 0.00797274 0.0157727 0.0244954 0.0328244 0.037893 0.0244954 0.0698059 0.0244954 0.0109898 0.0676886 0.221374 0.0181031 0.0151488 0.0118572 0.0157727 0.0244954 0.0294962 0.0248813 0.0371116 0.00976872 0.0118572 0.00760594 0.0109898 0.0676886 0.0485429 0.0151488 0.0221905 0.00790366 0.0221905 0.021599 0.0118572 0.0157662 0.00790366 0.082177 0.221374 0.0136882 0.0824658 0.0221905 0.0503251 0.0120314 0.0244954 0.0328244 0.00790366 0.00858434 0.0118572 0.0588268 0.00816951 0.00797274 0.0102849 0.0151488 0.0244954 0.0877689 0.0367488 0.0588268 0.0831765 0.0909148 0.0328244 0.00760594 0.0294962 0.0824658 0.00908091 0.0221905 0.0195097 0.0588268 0.0248813 0.0417277 0.0120314 0.0391044 0.0698059 0.0364304 0.0328244 0.138655 0.00976872 0.0606986 0.0100133 0.00878122 0.0151488 0.0136882 0.0100133 0.0503251 0.0226112 0.0294962 0.0116913 0.0485429 0.0588268 0.0157727 0.0364304 0.0151488 0.0391044 0.00760594 0.00790366 0.0782104 0.0226112 0.0116913 0.0116913 0.016849 0.0136882 0.0923878 0.0157727 0.00797274 0.0102849 0.0485429 0.0503251 0.00816951 0.0120314 0.0157662 0.00790366 0.0607373 0.021599 0.0248813 0.0221905 0.0367488 0.00878122 0.0364304 0.0328244 0.0116913 0.0248813 0.0120314 0.00760594 0.0244954 0.0248813 0.00908091 0.0120314 0.0676886 0.082177 0.0116913 0.0221905 0.0367488 0.00878122 0.0588268 0.00858434 0.00797274 0.0157662 0.0364304 0.0157727 0.0118572 0.0244954 
</DataArray>
<DataArray type="Float64" Name="cell variable 6" format="ascii">
0.0038835 0.000857904 8.84138e-05 5.3719e-06 0.000885689 1.10661e-05 0.000251962 1.10661e-05 0.0019189 0.00127682 3.76475e-06 0.00051123 3.15261e-05 6.33494e-06 0.000187165 8.3838e-05 0.000187165 0.000410215 0.000187165 0.000187165 0.000251962 8.43313e-06 0.00035504 0.00035504 0.00364689 0.000410215 3.156e-05 0.000380196 0.000410215 0.000885689 0.00364689 0.000115922 9.11938e-06 0.000115922 0.000885689 0.000410215 0.0019794 0.000110922 7.76673e-05 0.000115922 0.00202135 0.0038835 2.09522e-05 1.32528e-05 0.000115922 4.64493e-06 4.32387e-06 0.000857904 0.000349016 8.84138e-05 2.09522e-05 2.80904e-05 0.000394946 3.156e-05 7.76673e-05 0.000858618 5.74138e-06 4.69278e-05 4.32387e-06 1.38076e-05 0.000187165 5.81379e-05 6.33494e-06 5.3719e-06 4.69278e-05 0.000251962 4.21468e-06 2.09522e-05 0.000394946 0.00202135 0.000110922 0.000380196 0.000696942 0.000251962 0.000349016 0.0019189 8.3838e-05 0.000394946 0.000696942 4.32387e-06 0.000858618 5.81379e-05 0.000410215 3.15261e-05 0.000696942 0.00127682 6.33494e-06 4.64493e-06 3.76475e-06 0.0019189 0.00151522 5.81379e-05 0.0019794 0.00439847 9.11938e-06 9.11938e-06 3.81646e-05 1.32528e-05 0.000380196 0.000251962 0.000380196 6.33494e-06 1.32528e-05 0.00439847 0.000110922 1.32528e-05 0.00051123 0.000251962 0.000857904 1.38076e-05 0.000251962 3.15261e-05 3.81646e-05 7.76673e-05 0.00051123 7.76673e-05 0.000251962 8.84138e-05 4.32387e-06 3.156e-05 8.84138e-05 0.00035504 0.00127682 0.00310284 0.00151522 7.76673e-05 0.00628005 0.000187165 8.43313e-06 0.000349016 0.000349016 3.81646e-05 3.156e-05 0.00151522 8.3838e-05 5.74138e-06 0.000394946 3.156e-05 6.33494e-06 3.156e-05 3.15261e-05 7.8448e-06 4.21468e-06 0.00403961 0.000251962 9.11938e-06 8.3838e-05 8.43313e-06 0.00628005 2.09522e-05 0.00035504 9.11938e-06 0.00439847 1.32528e-05 7.8448e-06 0.00364689 1.38076e-05 3.15261e-05 0.000251962 5.74138e-06 5.3719e-06 1.10661e-05 2.09522e-05 5.74138e-06 0.00035504 3.81646e-05 8.84138e-05 0.000857904 4.32387e-06 0.0019794 0.02163 1.32528e-05 0.000187165 0.0019189 2.09522e-05 0.00439847 7.8448e-06 7.8448e-06 0.00310284 0.0019189 4.21468e-06 7.8448e-06 7.8448e-06 8.84138e-05 0.000858618 0.000885689 8.84138e-05 4.32387e-06 0.00439847 2.09522e-05 0.000251962 1.38076e-05 5.3719e-06 0.00127682 0.000394946 3.156e-05 1.10661e-05 3.81646e-05 2.80904e-05 1.32528e-05 3.15261e-05 1.4406e-05 4.69278e-05 8.84138e-05 0.000110922 0.000394946 0.000696942 5.81379e-05 3.81646e-05 0.000858618 0.000349016 7.76673e-05 0.000110922 0.000410215 8.84138e-05 0.0019794 0.0038835 7.76673e-05 0.000187165 5.3719e-06 6.33494e-06 0.0038835 0.000857904 0.000696942 0.00310284 2.80904e-05 0.00035504 0.00364689 0.000885689 3.81646e-05 0.0038835 1.4406e-05 2.09522e-05 4.64493e-06 6.33494e-06 1.32528e-05 4.64493e-06 0.00051123 0.000696942 0.000110922 8.43313e-06 0.0671729 0.00310284 4.32387e-06 1.32528e-05 0.00127682 1.4406e-05 4.69278e-05 0.0019794 5.3719e-06 4.64493e-06 0.000187165 0.000115922 3.76475e-06 0.0038835 3.81646e-05 4.64493e-06 0.000696942 0.000858618 0.000885689 4.32387e-06 0.000349016 0.00051123 0.000696942 0.0019794 0.000110922 3.76475e-06 1.38076e-05 0.000885689 1.32528e-05 4.32387e-06 3.156e-05 0.000110922 0.000251962 0.000380196 0.000110922 0.0019794 0.000110922 1.10661e-05 0.0019189 0.185318 4.69278e-05 2.80904e-05 1.38076e-05 3.156e-05 0.000110922 0.000187165 0.000115922 0.000394946 7.8448e-06 1.38076e-05 3.76475e-06 1.10661e-05 0.0019189 0.000858618 2.80904e-05 8.3838e-05 4.21468e-06 8.3838e-05 7.76673e-05 1.38076e-05 3.15261e-05 4.21468e-06 0.00576492 0.185318 2.09522e-05 0.00403961 8.3838e-05 0.000857904 1.4406e-05 0.000110922 0.000251962 4.21468e-06 5.3719e-06 1.38076e-05 0.00127682 4.64493e-06 4.32387e-06 9.11938e-06 2.80904e-05 0.000110922 0.00628005 0.00035504 0.00127682 0.00364689 0.0038835 0.000251962 3.76475e-06 0.000187165 0.00403961 6.33494e-06 8.3838e-05 5.81379e-05 0.00127682 0.000115922 0.00051123 1.4406e-05 0.000410215 0.0019794 0.000349016 0.000251962 0.0566856 7.8448e-06 0.00151522 8.43313e-06 5.74138e-06 2.80904e-05 2.09522e-05 8.43313e-06 0.000857904 8.84138e-05 0.000187165 1.32528e-05 0.000858618 0.00127682 3.156e-05 0.000349016 2.80904e-05 0.000410215 3.76475e-06 4.21468e-06 0.00310284 8.84138e-05 1.32528e-05 1.32528e-05 3.81646e-05 2.09522e-05 0.00439847 3.156e-05 4.32387e-06 9.11938e-06 0.000858618 0.000857904 4.64493e-06 1.4406e-05 3.15261e-05 4.21468e-06 0.00202135 7.76673e-05 0.000115922 8.3838e-05 0.00035504 5.74138e-06 0.000349016 0.000251962 1.32528e-05 0.000115922 1.4406e-05 3.76475e-06 0.000110922 0.000115922 6.33494e-06 1.4406e-05 0.0019189 0.00576492 1.32528e-05 8.3838e-05 0.00035504 5.74138e-06 0.00127682 5.3719e-06 4.32387e-06 3.15261e-05 0.000349016 3.156e-05 1.38076e-05 0.000110922 
</DataArray>
<DataArray type="Float64" Name="cell variable 7" format="ascii">
0.357275 0.264653 0.176526 0.0863829 0.262734 0.109939 0.214434 0.109939 0.306453 0.285858 0.0738515 0.24144 0.142821 0.091923 0.203114 0.174715 0.203114 0.233945 0.203114 0.203114 0.214434 0.10127 0.2268 0.2268 0.340125 0.233945 0.142859 0.230311 0.233945 0.262734 0.340125 0.185875 0.103782 0.185875 0.262734 0.233945 0.311423 0.184332 0.172124 0.185875 0.288948 0.357275 0.129973 0.115625 0.185875 0.0813708 0.0788486 0.264653 0.225806 0.176526 0.129973 0.139181 0.227704 0.142859 0.172124 0.259721 0.0886341 0.15552 0.0788486 0.116913 0.203114 0.162493 0.091923 0.0863829 0.15552 0.214434 0.0779382 0.129973 0.227704 0.288948 0.184332 0.230311 0.255368 0.214434 0.225806 0.306453 0.174715 0.227704 0.255368 0.0788486 0.259721 0.162493 0.233945 0.142821 0.255368 0.285858 0.091923 0.0813708 0.0738515 0.306453 0.290041 0.162493 0.311423 0.360012 0.103782 0.103782 0.148901 0.115625 0.230311 0.214434 0.230311 0.091923 0.115625 0.360012 0.184332 0.115625 0.24144 0.214434 0.264653 0.116913 0.214434 0.142821 0.148901 0.172124 0.24144 0.172124 0.214434 0.176526 0.0788486 0.142859 0.176526 0.2268 0.285858 0.329428 0.290041 0.172124 0.347352 0.203114 0.10127 0.225806 0.225806 0.148901 0.142859 0.290041 0.174715 0.0886341 0.227704 0.142859 0.091923 0.142859 0.142821 0.0989326 0.0779382 0.337987 0.214434 0.103782 0.174715 0.10127 0.347352 0.129973 0.2268 0.103782 0.360012 0.115625 0.0989326 0.340125 0.116913 0.142821 0.214434 0.0886341 0.0863829 0.109939 0.129973 0.0886341 0.2268 0.148901 0.176526 0.264653 0.0788486 0.311423 0.399197 0.115625 0.203114 0.306453 0.129973 0.360012 0.0989326 0.0989326 0.329428 0.306453 0.0779382 0.0989326 0.0989326 0.176526 0.259721 0.262734 0.176526 0.0788486 0.360012 0.129973 0.214434 0.116913 0.0863829 0.285858 0.227704 0.142859 0.109939 0.148901 0.139181 0.115625 0.142821 0.118245 0.15552 0.176526 0.184332 0.227704 0.255368 0.162493 0.148901 0.259721 0.225806 0.172124 0.184332 0.233945 0.176526 0.311423 0.357275 0.172124 0.203114 0.0863829 0.091923 0.357275 0.264653 0.255368 0.329428 0.139181 0.2268 0.340125 0.262734 0.148901 0.357275 0.118245 0.129973 0.0813708 0.091923 0.115625 0.0813708 0.24144 0.255368 0.184332 0.10127 0.46057 0.329428 0.0788486 0.115625 0.285858 0.118245 0.15552 0.311423 0.0863829 0.0813708 0.203114 0.185875 0.0738515 0.357275 0.148901 0.0813708 0.255368 0.259721 0.262734 0.0788486 0.225806 0.24144 0.255368 0.311423 0.184332 0.0738515 0.116913 0.262734 0.115625 0.0788486 0.142859 0.184332 0.214434 0.230311 0.184332 0.311423 0.184332 0.109939 0.306453 0.511928 0.15552 0.139181 0.116913 0.142859 0.184332 0.203114 0.185875 0.227704 0.0989326 0.116913 0.0738515 0.109939 0.306453 0.259721 0.139181 0.174715 0.0779382 0.174715 0.172124 0.116913 0.142821 0.0779382 0.334908 0.511928 0.129973 0.337987 0.174715 0.264653 0.118245 0.184332 0.214434 0.0779382 0.0863829 0.116913 0.285858 0.0813708 0.0788486 0.103782 0.139181 0.184332 0.347352 0.2268 0.285858 0.340125 0.357275 0.214434 0.0738515 0.203114 0.337987 0.091923 0.174715 0.162493 0.285858 0.185875 0.24144 0.118245 0.233945 0.311423 0.225806 0.214434 0.413855 0.0989326 0.290041 0.10127 0.0886341 0.139181 0.129973 0.10127 0.264653 0.176526 0.203114 0.115625 0.259721 0.285858 0.142859 0.225806 0.139181 0.233945 0.0738515 0.0779382 0.329428 0.176526 0.115625 0.115625 0.148901 0.129973 0.360012 0.142859 0.0788486 0.103782 0.259721 0.264653 0.0813708 0.118245 0.142821 0.0779382 0.288948 0.172124 0.185875 0.174715 0.2268 0.0886341 0.225806 0.214434 0.115625 0.185875 0.118245 0.0738515 0.184332 0.185875 0.091923 0.118245 0.306453 0.334908 0.115625 0.174715 0.2268 0.0886341 0.285858 0.0863829 0.0788486 0.142821 0.225806 0.142859 0.116913 0.184332 
</DataArray>
<DataArray type="Float64" Name="cell variable 8" format="ascii">