<VTKFile type="UnstructuredGrid" version="0.1">
<UnstructuredGrid>
<Piece  NumberOfPoints="    2467" NumberOfCells="     412">
<Points>
<DataArray type="Float64" NumberOfComponents="3" format="ascii">
-13.9052 -50.7665 0.0
-12.1715 -53.1582 0.0
-9.24797 -47.5417 0.0
-9.57186 -46.1948 0.0
-11.2957 -46.2352 0.0
-13.2333 -47.3565 0.0
-13.6737 -49.2352 0.0
30.2183 46.4047 0.0
28.7569 46.4978 0.0
27.6089 43.793 0.0
28.0356 39.9733 0.0
28.806 39.3667 0.0
33.6705 39.4816 0.0
33.8991 40.9321 0.0
33.4669 -24.1806 0.0
30.5774 -25.4265 0.0
35.6446 -27.8938 0.0
36.3495 -27.7429 0.0
37.1453 -27.4782 0.0
36.3961 -22.9186 0.0
-2.67273 23.4068 0.0
-7.30328 19.6201 0.0
-6.86282 16.5036 0.0
-1.60713 19.3672 0.0
-0.204403 20.754 0.0
-20.0813 -27.43 0.0
-20.0826 -25.3452 0.0
-20.1526 -24.7342 0.0
-20.6749 -24.0822 0.0
-23.6849 -23.5169 0.0
-24.5682 -28.586 0.0
16.7425 -26.1797 0.0
14.2856 -24.6025 0.0
10.0473 -25.0174 0.0
6.42368 -26.7324 0.0
5.91516 -27.7654 0.0
6.85534 -28.4633 0.0
9.00555 -30.0585 0.0
-47.3133 -11.1166 0.0
-44.9487 -14.2966 0.0
-44.1269 -14.6939 0.0
-42.5282 -14.2503 0.0
-42.9342 -9.76044 0.0
-44.1783 -6.26667 0.0
-47.6942 -10.5817 0.0
19.8439 -22.5088 0.0
18.5272 -19.9232 0.0
14.5123 -22.6647 0.0
14.9233 -24.2019 0.0
17.3802 -25.7791 0.0
17.797 -25.8537 0.0
38.2918 5.81409 0.0
38.2682 5.53893 0.0
43.7558 8.28516 0.0
43.3633 11.556 0.0
40.2898 10.9145 0.0
22.623 -50.4083 0.0
18.1653 -49.5139 0.0
17.2492 -50.0318 0.0
16.2166 -53.8624 0.0
18.3094 -55.6775 0.0
18.7409 -55.684 0.0
22.3331 -54.9181 0.0
3.46933 20.0872 0.0
3.36438 19.3066 0.0
7.79353 14.5193 0.0
9.09795 14.1906 0.0
10.1206 14.1768 0.0
10.5771 19.1816 0.0
9.67272 19.7698 0.0
-0.319583 -18.2267 0.0
-0.168114 -22.455 0.0
0.405299 -22.4785 0.0
5.23327 -21.105 0.0
5.7387 -19.8646 0.0
25.9952 30.3842 0.0
26.3055 31.094 0.0
22.5241 39.1149 0.0
19.9834 39.5888 0.0
19.0398 37.7156 0.0
19.0782 36.6024 0.0
-14.5964 -12.8972 0.0
-15.7517 -16.1967 0.0
-14.4112 -17.2043 0.0
-9.4106 -18.7831 0.0
-8.10369 -17.6932 0.0
-7.71912 -16.8172 0.0
-9.10655 -14.1866 0.0
48.105 -3.86359 0.0
43.6821 -3.32472 0.0
42.0378 -9.69971 0.0
44.7586 -9.70388 0.0
47.2833 -6.41974 0.0
48.6211 -4.52539 0.0
-19.4731 -43.9387 0.0
-20.0549 -43.7404 0.0
-24.167 -49.8587 0.0
-21.3373 -51.7874 0.0
-20.9906 -51.769 0.0
-19.9734 -47.5551 0.0
43.2281 -19.0943 0.0
40.5453 -19.5663 0.0
40.286 -26.3549 0.0
44.0425 -23.4227 0.0
43.4411 -19.5257 0.0
-52.8205 23.657 0.0
-55.848 23.4673 0.0
-56.1445 22.9366 0.0
-57.4862 17.8166 0.0
-54.0568 15.37 0.0
-52.1123 16.5626 0.0
47.44 -6.87003 0.0
44.9153 -10.1542 0.0
44.5713 -12.803 0.0
45.1049 -14.4609 0.0
48.8582 -11.3493 0.0
43.9229 -12.9976 0.0
44.2669 -10.3487 0.0
41.5461 -10.3446 0.0
36.7745 -11.8736 0.0
36.3732 -13.3291 0.0
36.8794 -16.1507 0.0
-44.1222 -3.63694 0.0
-41.693 -3.1539 0.0
-41.9938 3.24759 0.0
-44.1959 5.15603 0.0
-44.8939 4.42438 0.0
-45.3249 1.62451 0.0
-45.1367 -2.76051 0.0
-24.8692 28.1278 0.0
-27.6313 25.4218 0.0
-28.5072 23.8193 0.0
-27.6642 20.2584 0.0
-24.9363 20.2033 0.0
-23.5895 23.3812 0.0
36.6459 36.9271 0.0
39.5988 40.1205 0.0
37.7892 46.0035 0.0
34.5658 40.7922 0.0
34.3372 39.3417 0.0
-14.7259 6.00576 0.0
-12.8985 8.70584 0.0
-13.4707 10.9709 0.0
-14.0044 11.4506 0.0
-18.2209 10.4148 0.0
-34.2012 36.6017 0.0
-33.6822 36.016 0.0
-27.8953 41.6592 0.0
-27.6987 42.3488 0.0
-28.9474 43.4308 0.0
-32.0817 41.7872 0.0
-51.2866 24.048 0.0
-52.3627 23.6282 0.0
-51.6546 16.5338 0.0
-48.6279 16.0995 0.0
-46.2041 16.7464 0.0
-48.116 19.4926 0.0
-1.03085 -48.155 0.0
0.00605237 -48.3241 0.0
0.401283 -39.9729 0.0
0.195938 -39.8198 0.0
-3.25413 -41.1974 0.0
-13.1174 53.5249 0.0
-14.4963 53.4826 0.0
-15.8874 46.1844 0.0
-15.654 45.2439 0.0
-13.2774 45.8576 0.0
-11.8179 51.9159 0.0
-12.3187 53.0869 0.0
-48.6992 15.5048 0.0
-51.7259 15.9391 0.0
-53.6705 14.7465 0.0
-52.7124 11.4693 0.0
-47.9776 10.6437 0.0
-30.8921 -46.2829 0.0
-33.3152 -48.0928 0.0
-32.9465 -51.215 0.0
-31.5845 -52.2138 0.0
-31.3978 -52.2401 0.0
-28.3441 -50.4498 0.0
10.1061 -45.1582 0.0
11.7211 -40.5751 0.0
11.4989 -40.118 0.0
7.01574 -41.103 0.0
4.82417 -41.8134 0.0
2.13854 50.9078 0.0
0.29388 48.544 0.0
3.95858 47.4313 0.0
7.46236 49.8872 0.0
4.31133 52.0601 0.0
10.5608 29.4565 0.0
10.738 27.4146 0.0
14.6665 23.9424 0.0
15.1086 24.1865 0.0
15.5142 24.5803 0.0
15.6432 27.0677 0.0
15.7198 28.2989 0.0
14.125 30.5201 0.0
11.5402 30.7164 0.0
11.1716 30.7068 0.0
8.32594 49.0852 0.0
7.34809 49.4208 0.0
3.84431 46.9649 0.0
-1.97069 42.8204 0.0
-0.223132 41.1462 0.0
0.00280505 41.0347 0.0
-45.3779 30.1403 0.0
-43.6002 27.4684 0.0
-42.7526 27.4733 0.0
-40.8942 33.4612 0.0
-42.574 34.9105 0.0
-45.4132 8.79439 0.0
-47.9249 10.1934 0.0
-52.6597 11.019 0.0
-53.1078 9.53434 0.0
-52.4773 6.27719 0.0
-5.65935 43.7536 0.0
-4.04617 43.7503 0.0
-0.407762 48.3642 0.0
1.4369 50.7279 0.0
0.725341 50.7247 0.0
-5.70137 50.2563 0.0
-33.186 -19.0432 0.0
-35.9427 -15.967 0.0
-39.2292 -14.8348 0.0
-40.3988 -15.3047 0.0
-39.7358 -17.2618 0.0
-37.0134 -21.3711 0.0
-29.4301 34.3218 0.0
-30.3713 34.1409 0.0
-30.069 25.4626 0.0
-29.428 24.6338 0.0
-28.8335 24.3985 0.0
-27.9577 26.001 0.0
-28.6346 33.8897 0.0
12.2851 42.1861 0.0
14.7229 42.9196 0.0
13.9316 49.0449 0.0
11.4657 48.5288 0.0
10.5816 46.6587 0.0
-26.637 -58.1249 0.0
-25.6907 -58.132 0.0
-21.6624 -52.338 0.0
-24.4921 -50.4093 0.0
-25.3973 -49.8169 0.0
-25.9237 -50.1805 0.0
5.13302 54.311 0.0
4.78911 52.2263 0.0
7.94014 50.0534 0.0
8.91799 49.7178 0.0
11.0475 49.0894 0.0
13.5135 49.6055 0.0
13.7704 49.721 0.0
34.4184 15.0505 0.0
36.3858 9.85597 0.0
37.9073 6.00471 0.0
39.9052 11.1051 0.0
39.8533 11.2258 0.0
-22.5614 -17.6553 0.0
-24.798 -15.9464 0.0
-27.505 -14.4209 0.0
-28.3973 -20.3109 0.0
-26.8046 -20.9852 0.0
10.1283 46.3767 0.0
2.72999 41.4346 0.0
10.5411 40.7307 0.0
11.8317 41.9041 0.0
28.2752 2.92282 0.0
27.5406 3.30437 0.0
21.6777 -1.65886 0.0
21.227 -4.74001 0.0
22.7163 -5.77402 0.0
26.5037 -3.58545 0.0
13.0101 -15.058 0.0
17.1789 -11.4643 0.0
14.1377 -10.217 0.0
11.1907 -12.0678 0.0
10.2841 -12.8009 0.0
10.218 -16.0029 0.0
11.4516 -16.1827 0.0
33.248 6.80642 0.0
33.2617 4.19355 0.0
34.2239 3.43824 0.0
35.0696 3.22734 0.0
37.5435 4.36811 0.0
37.6826 5.24577 0.0
37.7061 5.52093 0.0
36.1847 9.37219 0.0
-8.15753 -45.6962 0.0
-8.98738 -46.2234 0.0
-8.66349 -47.5703 0.0
-6.93534 -53.3933 0.0
-4.66308 -52.2997 0.0
-1.96718 -48.8325 0.0
27.7142 -20.3164 0.0
25.2299 -18.2082 0.0
20.4079 -22.4675 0.0
18.361 -25.8124 0.0
18.8624 -26.4287 0.0
21.2701 -26.4249 0.0
38.1557 17.7795 0.0
40.078 12.7617 0.0
45.3849 18.7778 0.0
-37.424 6.88358 0.0
-37.1341 7.34131 0.0
-37.326 9.81597 0.0
-40.0753 11.2682 0.0
-42.5908 11.7554 0.0
-44.0264 8.68833 0.0
-43.7672 7.54042 0.0
-16.95 47.3232 0.0
-19.6946 53.9924 0.0
-20.652 54.3605 0.0
-21.4719 53.4872 0.0
-21.7127 49.7575 0.0
0.282045 -48.4109 0.0
0.651163 -48.5191 0.0
2.12241 -47.9808 0.0
3.28925 -46.5529 0.0
3.1442 -42.1703 0.0
2.64678 -41.1199 0.0
0.677276 -40.0597 0.0
-34.825 28.3849 0.0
-33.2057 28.9155 0.0
-33.0305 34.1266 0.0
-34.0282 35.2408 0.0
-34.5472 35.8266 0.0
-36.4703 35.8355 0.0
15.259 -59.7867 0.0
17.7089 -56.1031 0.0
15.6162 -54.2879 0.0
15.2002 -54.3629 0.0
11.4544 -54.9537 0.0
9.64821 -56.0187 0.0
9.2203 -57.9538 0.0
25.6609 26.956 0.0
24.3656 24.1824 0.0
23.8741 22.9066 0.0
31.0547 20.9965 0.0
30.7186 21.8171 0.0
28.2742 26.6158 0.0
26.7152 27.5402 0.0
42.9595 0.847308 0.0
44.462 1.84202 0.0
50.3429 10.0397 0.0
49.7719 10.6385 0.0
44.5621 5.995 0.0
42.2068 2.18789 0.0
14.2369 -4.35082 0.0
11.7678 -2.79274 0.0
8.41221 -8.51936 0.0
9.68751 -11.7603 0.0
10.0979 -12.2303 0.0
11.0044 -11.4972 0.0
27.0402 -3.40446 0.0
29.5625 -4.26645 0.0
33.6918 2.86559 0.0
32.7296 3.62089 0.0
30.527 3.78152 0.0
28.8118 3.10381 0.0
44.5428 -15.0488 0.0
44.0092 -13.391 0.0
36.9657 -16.5441 0.0
36.9188 -16.7498 0.0
36.7932 -18.0203 0.0
37.8894 -19.1937 0.0
40.4432 -19.0095 0.0
43.126 -18.5375 0.0
44.0826 -17.2112 0.0
20.9691 -34.9309 0.0
20.6756 -34.1537 0.0
16.8553 -31.613 0.0
12.2677 -33.8643 0.0
12.8301 -35.487 0.0
-7.41325 -18.3928 0.0
-8.72016 -19.4827 0.0
-8.67445 -20.5624 0.0
-3.34868 -27.1582 0.0
-2.28246 -27.7435 0.0
-1.37745 -23.3059 0.0
-6.55405 26.9404 0.0
-9.96443 26.8522 0.0
-14.7663 17.8364 0.0
-13.6442 16.3503 0.0
-11.4085 18.2838 0.0
48.4624 15.2339 0.0
43.9113 11.7869 0.0
44.3038 8.51603 0.0
44.6483 6.56051 0.0
49.8582 11.204 0.0
49.2412 13.9888 0.0
-41.2783 -3.27712 0.0
-37.345 -3.73259 0.0
-36.6215 -2.12505 0.0
-38.1425 1.25828 0.0
-41.5791 3.12437 0.0
-1.38821 -4.07084 0.0
-1.24257 -3.99203 0.0
-5.23076 4.98695 0.0
-6.50042 4.8615 0.0
-7.3367 0.352147 0.0
29.2927 14.9784 0.0
29.7591 13.1973 0.0
32.7387 11.6863 0.0
32.8559 17.5962 0.0
32.5601 19.3359 0.0
31.9241 19.4928 0.0
29.0262 16.7473 0.0
54.4139 18.7672 0.0
55.645 18.7648 0.0
55.7568 20.2855 0.0
55.1581 23.9999 0.0
53.2842 25.5504 0.0
52.4839 25.4641 0.0
51.2352 24.9665 0.0
49.8792 23.4625 0.0
-22.3467 7.84599 0.0
-22.4161 5.87 0.0
-17.8478 1.2957 0.0
-16.38 3.0527 0.0
-16.4002 3.72122 0.0
-21.6392 8.39255 0.0
-20.0076 -30.1786 0.0
-20.1015 -27.8676 0.0
-24.5884 -29.0236 0.0
-24.9222 -30.679 0.0
-23.9682 -32.9319 0.0
-22.5318 -33.11 0.0
-28.0125 46.6449 0.0
-28.3391 43.9001 0.0
-27.0904 42.8181 0.0
-23.4216 42.2643 0.0
-21.7374 43.9533 0.0
-22.4624 47.6032 0.0
52.3326 -5.66082 0.0
53.5818 -5.16881 0.0
57.3538 -3.20073 0.0
55.6817 0.639757 0.0
50.7288 -4.23661 0.0
-51.4633 -16.3111 0.0
-58.3235 -15.7176 0.0
-58.3865 -17.5168 0.0
-53.518 -20.8566 0.0
-51.6373 -20.8823 0.0
-51.4732 -17.6069 0.0
11.0452 31.3871 0.0
11.4138 31.3968 0.0
15.6222 37.1789 0.0
14.0217 36.9334 0.0
10.7892 36.2974 0.0
9.46381 33.136 0.0
-40.1099 46.3536 0.0
-38.8562 42.1408 0.0
-38.0091 40.8799 0.0
-34.6089 43.9619 0.0
-35.2397 45.4795 0.0
-39.7631 47.6081 0.0
-21.1708 -42.2951 0.0
-20.9787 -42.3337 0.0
-22.1847 -34.2917 0.0
-22.6027 -33.7733 0.0
-24.039 -33.5952 0.0
-25.6866 -34.9436 0.0
-25.6553 -35.9938 0.0
-25.6414 -36.1567 0.0
49.9529 14.0357 0.0
50.5699 11.2508 0.0
51.1408 10.652 0.0
53.0246 8.85223 0.0
54.6228 8.98967 0.0
58.0007 11.3085 0.0
57.589 12.99 0.0
[...]
<CellData Scalars="cell variable 4" Vectors="cell vector">
<DataArray type="Float64" NumberOfComponents="3" Name="cell vector" format="ascii">
0 0 0
0 0 0
0 0 0
0 0 0
0 0 0
0 0 0
0 0 0
0 0 0
0 0 0
0 0 0
0 0 0
0 0 0
0 0 0
0 0 0
0 0 0
0 0 0
0 0 0
0 0 0
0 0 0
0 0 0
0 0 0
0 0 0
0 0 0
0 0 0
0 0 0
0 0 0
0 0 0
0 0 0
0 0 0
0 0 0
0 0 0
0 0 0
0 0 0
0 0 0
0 0 0
0 0 0
0 0 0
0 0 0
0 0 0
0 0 0
0 0 0
0 0 0
0 0 0
0 0 0
0 0 0
0 0 0
0 0 0
0 0 0
0 0 0
0 0 0
0 0 0
0 0 0
0 0 0
0 0 0
0 0 0
0 0 0
0 0 0
0 0 0
0 0 0
0 0 0
0 0 0
0 0 0
0 0 0
0 0 0
0 0 0
0 0 0
0 0 0
0 0 0
0 0 0
0 0 0
0 0 0
0 0 0
0 0 0
0 0 0
0 0 0
0 0 0
0 0 0
0 0 0
0 0 0
0 0 0
0 0 0
0 0 0
0 0 0
0 0 0
0 0 0
0 0 0
0 0 0
0 0 0
0 0 0
0 0 0
0 0 0
0 0 0
0 0 0
0 0 0
0 0 0
0 0 0
0 0 0
0 0 0
0 0 0
0 0 0
0 0 0
0 0 0
0 0 0
0 0 0
0 0 0
0 0 0
0 0 0
0 0 0
0 0 0
0 0 0
0 0 0
0 0 0
0 0 0
0 0 0
0 0 0
0 0 0
0 0 0
0 0 0
0 0 0
0 0 0
0 0 0
0 0 0
0 0 0
0 0 0
0 0 0
0 0 0
0 0 0
0 0 0
0 0 0
0 0 0
0 0 0
0 0 0
0 0 0
0 0 0
0 0 0
0 0 0
0 0 0
0 0 0
0 0 0
0 0 0
0 0 0
0 0 0
0 0 0
0 0 0
0 0 0
0 0 0
0 0 0
0 0 0
0 0 0
0 0 0
0 0 0
0 0 0
0 0 0
0 0 0
0 0 0
0 0 0
0 0 0
0 0 0
0 0 0
0 0 0
0 0 0
0 0 0
0 0 0
0 0 0
0 0 0
0 0 0
0 0 0
0 0 0
0 0 0
0 0 0
0 0 0
0 0 0
0 0 0
0 0 0
0 0 0
0 0 0
0 0 0
0 0 0
0 0 0
0 0 0
0 0 0
0 0 0
0 0 0
0 0 0
0 0 0
0 0 0
0 0 0
0 0 0
0 0 0
0 0 0
0 0 0
0 0 0
0 0 0
0 0 0
0 0 0
0 0 0
0 0 0
0 0 0
0 0 0
0 0 0
0 0 0
0 0 0
0 0 0
0 0 0
0 0 0
0 0 0
0 0 0
0 0 0
0 0 0
0 0 0
0 0 0
0 0 0
0 0 0
0 0 0
0 0 0
0 0 0
0 0 0
0 0 0
0 0 0
0 0 0
0 0 0
0 0 0
0 0 0
0 0 0
0 0 0
0 0 0
0 0 0
0 0 0
0 0 0
0 0 0
0 0 0
0 0 0
0 0 0
0 0 0
0 0 0
0 0 0
0 0 0
0 0 0
0 0 0
0 0 0
0 0 0
0 0 0
0 0 0
0 0 0
0 0 0
0 0 0
0 0 0
0 0 0
0 0 0
0 0 0
0 0 0
0 0 0
0 0 0
0 0 0
0 0 0
0 0 0
0 0 0
0 0 0
0 0 0
0 0 0
0 0 0
0 0 0
0 0 0
0 0 0
0 0 0
0 0 0
0 0 0
0 0 0
0 0 0
0 0 0
0 0 0
0 0 0
0 0 0
0 0 0
0 0 0
0 0 0
0 0 0
0 0 0
0 0 0
0 0 0
0 0 0
0 0 0
0 0 0
0 0 0
0 0 0
0 0 0
0 0 0
0 0 0
0 0 0
0 0 0
0 0 0
0 0 0
0 0 0
0 0 0
0 0 0
0 0 0
0 0 0
0 0 0
0 0 0
0 0 0
0 0 0
0 0 0
0 0 0
0 0 0
0 0 0
0 0 0
0 0 0
0 0 0
0 0 0
0 0 0
0 0 0
0 0 0
0 0 0
0 0 0
0 0 0
0 0 0
0 0 0
0 0 0
0 0 0
0 0 0
0 0 0
0 0 0
0 0 0
0 0 0
0 0 0
0 0 0
0 0 0
0 0 0
0 0 0
0 0 0
0 0 0
0 0 0
0 0 0
0 0 0
0 0 0
0 0 0
0 0 0
0 0 0
0 0 0
0 0 0
0 0 0
0 0 0
0 0 0
0 0 0
0 0 0
0 0 0
0 0 0
0 0 0
0 0 0
0 0 0
0 0 0
0 0 0
0 0 0
0 0 0
0 0 0
0 0 0
0 0 0
0 0 0
0 0 0
0 0 0
0 0 0
0 0 0
0 0 0
0 0 0
0 0 0
0 0 0
0 0 0
0 0 0
0 0 0
0 0 0
0 0 0
0 0 0
0 0 0
0 0 0
0 0 0
0 0 0
0 0 0
0 0 0
0 0 0
0 0 0
0 0 0
0 0 0
0 0 0
0 0 0
0 0 0
0 0 0
0 0 0
0 0 0
0 0 0
0 0 0
0 0 0
0 0 0
0 0 0
0 0 0
0 0 0
0 0 0
0 0 0
0 0 0
0 0 0
0 0 0
0 0 0
0 0 0
0 0 0
0 0 0
0 0 0
0 0 0
0 0 0
0 0 0
0 0 0
0 0 0
0 0 0
0 0 0
</DataArray>
<DataArray type="Float64" Name="cell vector length" format="ascii">
0 0 0 0 0 0 0 0 0 0 0 0 0 0 0 0 0 0 0 0 0 0 0 0 0 0 0 0 0 0 0 0 0 0 0 0 0 0 0 0 0 0 0 0 0 0 0 0 0 0 0 0 0 0 0 0 0 0 0 0 0 0 0 0 0 0 0 0 0 0 0 0 0 0 0 0 0 0 0 0 0 0 0 0 0 0 0 0 0 0 0 0 0 0 0 0 0 0 0 0 0 0 0 0 0 0 0 0 0 0 0 0 0 0 0 0 0 0 0 0 0 0 0 0 0 0 0 0 0 0 0 0 0 0 0 0 0 0 0 0 0 0 0 0 0 0 0 0 0 0 0 0 0 0 0 0 0 0 0 0 0 0 0 0 0 0 0 0 0 0 0 0 0 0 0 0 0 0 0 0 0 0 0 0 0 0 0 0 0 0 0 0 0 0 0 0 0 0 0 0 0 0 0 0 0 0 0 0 0 0 0 0 0 0 0 0 0 0 0 0 0 0 0 0 0 0 0 0 0 0 0 0 0 0 0 0 0 0 0 0 0 0 0 0 0 0 0 0 0 0 0 0 0 0 0 0 0 0 0 0 0 0 0 0 0 0 0 0 0 0 0 0 0 0 0 0 0 0 0 0 0 0 0 0 0 0 0 0 0 0 0 0 0 0 0 0 0 0 0 0 0 0 0 0 0 0 0 0 0 0 0 0 0 0 0 0 0 0 0 0 0 0 0 0 0 0 0 0 0 0 0 0 0 0 0 0 0 0 0 0 0 0 0 0 0 0 0 0 0 0 0 0 0 0 0 0 0 0 0 0 0 0 0 0 0 0 0 0 0 0 0 0 0 0 0 0 0 0 0 0 0 0 0 0 0 0 0 0 0 0 0 0 0 0 0 0 0 0 0 0 0 0 0 0 0 0 0 0 0 0 0 0 
</DataArray>
<DataArray type="Float64" Name="cell variable 4" format="ascii">
0.514292 0.434405 0.657465 1.07467 0.631062 0.94865 0.542818 0.94865 0.736473 0.399988 1.14226 1.04461 0.790107 1.04461 0.573608 0.66381 0.573608 0.495708 0.573608 0.573608 0.542818 0.99432 0.511974 1.00681 0.673042 0.495708 0.789941 0.503886 0.495708 0.437452 0.789941 0.626025 0.980966 0.626025 0.393381 0.495708 0.36504 0.631062 0.673042 0.626025 0.393247 0.343308 0.848855 0.919422 0.626025 1.10185 1.11547 0.848855 0.514292 0.657465 0.848855 0.8063 0.503886 0.789941 0.673042 0.442722 1.06245 0.736473 1.11547 0.912892 0.573608 0.708918 1.04461 1.07467 0.736473 0.542818 1.12037 0.848855 0.50937 1.00681 0.631062 0.503886 0.45141 0.542818 0.626025 0.371127 0.66381 0.50937 0.45141 1.11547 0.442722 0.708918 0.495708 0.790107 0.36504 0.912892 1.04461 1.10185 1.14226 0.66381 0.673042 0.708918 0.36504 0.626025 0.980966 0.980966 0.763876 0.919422 0.503886 1.11547 0.503886 1.04461 0.919422 0.495708 0.631062 0.919422 0.479217 0.542818 0.434405 0.912892 0.542818 0.790107 0.763876 0.673042 0.479217 0.673042 0.542818 0.657465 1.11547 0.789941 0.657465 0.511974 1.00681 0.343308 0.393381 0.673042 0.32239 0.573608 0.99432 0.790107 0.514292 0.763876 0.789941 0.393381 0.66381 1.06245 0.50937 0.789941 1.04461 0.789941 0.790107 1.00681 1.12037 0.763876 0.542818 0.980966 0.66381 0.99432 0.980966 0.848855 0.495708 0.980966 0.313432 0.919422 1.00681 0.332003 0.912892 0.790107 0.542818 1.06245 1.07467 0.94865 0.848855 1.06245 0.511974 0.763876 0.657465 0.434405 1.11547 0.36504 0.573608 0.919422 0.573608 0.626025 0.848855 0.673042 1.00681 1.00681 0.343308 0.371127 1.12037 1.00681 1.00681 0.657465 0.442722 0.437452 0.657465 1.11547 0.313432 0.848855 0.542818 0.912892 1.07467 0.399988 0.980966 0.789941 0.94865 0.763876 0.8063 0.919422 0.790107 0.90618 0.736473 0.657465 0.631062 0.912892 0.45141 0.708918 0.763876 0.442722 0.514292 0.673042 0.631062 0.495708 0.657465 0.36504 0.980966 0.673042 0.573608 1.07467 1.04461 0.316217 0.434405 0.45141 0.343308 0.8063 0.511974 0.332003 0.437452 0.763876 0.316217 0.90618 0.848855 1.10185 1.04461 0.919422 1.10185 0.479217 0.45141 0.631062 0.99432 0.94865 0.442722 1.11547 0.919422 0.399988 0.90618 0.736473 0.36504 1.07467 1.10185 0.573608 0.626025 1.14226 0.316217 0.763876 1.10185 0.45141 0.343308 0.437452 1.11547 0.514292 1.06245 0.45141 0.36504 0.631062 1.14226 0.912892 0.437452 0.919422 1.11547 0.789941 0.631062 0.542818 0.503886 0.631062 0.36504 0.631062 0.94865 0.371127 0.736473 0.736473 0.8063 0.912892 0.789941 0.631062 0.573608 0.626025 0.50937 1.00681 0.912892 1.14226 0.94865 0.371127 0.442722 0.8063 0.66381 1.12037 0.66381 0.673042 0.912892 0.790107 1.12037 1.06245 0.912892 0.848855 0.33356 0.66381 0.434405 0.90618 0.631062 0.542818 1.12037 1.07467 0.912892 0.399988 1.10185 1.11547 0.980966 0.8063 0.631062 0.32239 0.511974 0.399988 0.332003 0.316217 0.542818 1.14226 0.573608 0.33356 1.04461 0.66381 0.708918 0.399988 0.626025 0.479217 0.90618 0.495708 0.36504 0.514292 0.542818 0.631062 1.00681 0.393381 0.99432 1.06245 0.8063 0.848855 0.99432 0.434405 0.657465 0.573608 0.919422 0.442722 0.399988 0.789941 0.514292 0.8063 0.495708 1.14226 1.12037 0.343308 0.657465 0.919422 0.919422 0.763876 0.848855 0.313432 0.789941 1.11547 0.980966 0.631062 0.434405 1.10185 0.90618 0.790107 1.12037 0.542818 0.673042 0.626025 0.66381 0.511974 1.06245 0.514292 0.542818 0.919422 0.626025 0.90618 1.14226 0.631062 0.626025 1.04461 0.90618 0.371127 0.657465 0.919422 0.66381 0.511974 1.06245 0.399988 1.07467 1.11547 0.673042 0.790107 0.542818 1.14226 0.919422 0.790107 0.657465 0.657465 0.66381 0.789941 
</DataArray>
<DataArray type="Float64" Name="cell variable 5" format="ascii">
0.0364304 0.0503251 0.0226112 0.00858434 0.0244954 0.0109898 0.0328244 0.0109898 0.0181031 0.0588268 0.00760594 0.00908091 0.0157662 0.00908091 0.0294962 0.0221905 0.0294962 0.0391044 0.0294962 0.0294962 0.0328244 0.0100133 0.0367488 0.00976872 0.021599 0.0391044 0.0157727 0.037893 0.0391044 0.0496613 0.0157727 0.0248813 0.0102849 0.0248813 0.0606986 0.0391044 0.0698059 0.0244954 0.021599 0.0248813 0.0607373 0.0782104 0.0136882 0.0116913 0.0248813 0.00816951 0.00797274 0.0136882 0.0364304 0.0226112 0.0136882 0.0151488 0.037893 0.0157727 0.021599 0.0485429 0.00878122 0.0181031 0.00797274 0.0118572 0.0294962 0.0195097 0.00908091 0.00858434 0.0181031 0.0328244 0.00790366 0.0136882 0.0371116 0.00976872 0.0244954 0.037893 0.0467791 0.0328244 0.0248813 0.0676886 0.0221905 0.0371116 0.0467791 0.00797274 0.0485429 0.0195097 0.0391044 0.0157662 0.0698059 0.0118572 0.00908091 0.00816951 0.00760594 0.0221905 0.021599 0.0195097 0.0698059 0.0248813 0.0102849 0.0102849 0.016849 0.0116913 0.037893 0.00797274 0.037893 0.00908091 0.0116913 0.0391044 0.0244954 0.0116913 0.0417277 0.0328244 0.0503251 0.0118572 0.0328244 0.0157662 0.016849 0.021599 0.0417277 0.021599 0.0328244 0.0226112 0.00797274 0.0157727 0.0226112 0.0367488 0.00976872 0.0782104 0.0606986 0.021599 0.0877689 0.0294962 0.0100133 0.0157662 0.0364304 0.016849 0.0157727 0.0606986 0.0221905 0.00878122 0.0371116 0.0157727 0.00908091 0.0157727 0.0157662 0.00976872 0.00790366 0.016849 0.0328244 0.0102849 0.0221905 0.0100133 0.0102849 0.0136882 0.0391044 0.0102849 0.0923878 0.0116913 0.00976872 0.0831765 0.0118572 0.0157662 0.0328244 0.00878122 0.00858434 0.0109898 0.0136882 0.00878122 0.0367488 0.016849 0.0226112 0.0503251 0.00797274 0.0698059 0.0294962 0.0116913 0.0294962 0.0248813 0.0136882 0.021599 0.00976872 0.00976872 0.0782104 0.0676886 0.00790366 0.00976872 0.00976872 0.0226112 0.0485429 0.0496613 0.0226112 0.00797274 0.0923878 0.0136882 0.0328244 0.0118572 0.00858434 0.0588268 0.0102849 0.0157727 0.0109898 0.016849 0.0151488 0.0116913 0.0157662 0.0120314 0.0181031 0.0226112 0.0244954 0.0118572 0.0467791 0.0195097 0.016849 0.0485429 0.0364304 0.021599 0.0244954 0.0391044 0.0226112 0.0698059 0.0102849 0.021599 0.0294962 0.00858434 0.00908091 0.0909148 0.0503251 0.0467791 0.0782104 0.0151488 0.0367488 0.0831765 0.0496613 0.016849 0.0909148 0.0120314 0.0136882 0.00816951 0.00908091 0.0116913 0.00816951 0.0417277 0.0467791 0.0244954 0.0100133 0.0109898 0.0485429 0.00797274 0.0116913 0.0588268 0.0120314 0.0181031 0.0698059 0.00858434 0.00816951 0.0294962 0.0248813 0.00760594 0.0909148 0.016849 0.00816951 0.0467791 0.0782104 0.0496613 0.00797274 0.0364304 0.00878122 0.0467791 0.0698059 0.0244954 0.00760594 0.0118572 0.0496613 0.0116913 0.00797274 0.0157727 0.0244954 0.0328244 0.037893 0.0244954 0.0698059 0.0244954 0.0109898 0.0676886 0.0181031 0.0181031 0.0151488 0.0118572 0.0157727 0.0244954 0.0294962 0.0248813 0.0371116 0.00976872 0.0118572 0.00760594 0.0109898 0.0676886 0.0485429 0.0151488 0.0221905 0.00790366 0.0221905 0.021599 0.0118572 0.0157662 0.00790366 0.00878122 0.0118572 0.0136882 0.0824658 0.0221905 0.0503251 0.0120314 0.0244954 0.0328244 0.00790366 0.00858434 0.0118572 0.0588268 0.00816951 0.00797274 0.0102849 0.0151488 0.0244954 0.0877689 0.0367488 0.0588268 0.0831765 0.0909148 0.0328244 0.00760594 0.0294962 0.0824658 0.00908091 0.0221905 0.0195097 0.0588268 0.0248813 0.0417277 0.0120314 0.0391044 0.0698059 0.0364304 0.0328244 0.0244954 0.00976872 0.0606986 0.0100133 0.00878122 0.0151488 0.0136882 0.0100133 0.0503251 0.0226112 0.0294962 0.0116913 0.0485429 0.0588268 0.0157727 0.0364304 0.0151488 0.0391044 0.00760594 0.00790366 0.0782104 0.0226112 0.0116913 0.0116913 0.016849 0.0136882 0.0923878 0.0157727 0.00797274 0.0102849 0.0244954 0.0503251 0.00816951 0.0120314 0.0157662 0.00790366 0.0328244 0.021599 0.0248813 0.0221905 0.0367488 0.00878122 0.0364304 0.0328244 0.0116913 0.0248813 0.0120314 0.00760594 0.0244954 0.0248813 0.00908091 0.0120314 0.0676886 0.0226112 0.0116913 0.0221905 0.0367488 0.00878122 0.0588268 0.00858434 0.00797274 0.021599 0.0157662 0.0328244 0.00760594 0.0116913 0.0157662 0.0226112 0.0226112 0.0221905 0.0157727 
</DataArray>
<DataArray type="Float64" Name="cell variable 6" format="ascii">
0.000349016 0.000857904 8.84138e-05 5.3719e-06 0.000110922 1.10661e-05 0.000251962 1.10661e-05 4.69278e-05 0.00127682 3.76475e-06 6.33494e-06 3.15261e-05 6.33494e-06 0.000187165 8.3838e-05 0.000187165 0.000410215 0.000187165 0.000187165 0.000251962 8.43313e-06 0.00035504 7.8448e-06 7.76673e-05 0.000410215 3.156e-05 0.000380196 0.000410215 0.000885689 3.156e-05 0.000115922 9.11938e-06 0.000115922 0.00151522 0.000410215 0.0019794 0.000110922 7.76673e-05 0.000115922 0.00202135 0.00310284 2.09522e-05 1.32528e-05 0.000115922 4.64493e-06 4.32387e-06 2.09522e-05 0.000349016 8.84138e-05 2.09522e-05 2.80904e-05 0.000380196 3.156e-05 7.76673e-05 0.000858618 5.74138e-06 4.69278e-05 4.32387e-06 1.38076e-05 0.000187165 5.81379e-05 6.33494e-06 5.3719e-06 4.69278e-05 0.000251962 4.21468e-06 2.09522e-05 0.000394946 7.8448e-06 0.000110922 0.000380196 0.000696942 0.000251962 0.000115922 0.0019189 8.3838e-05 0.000394946 0.000696942 4.32387e-06 0.000858618 5.81379e-05 0.000410215 3.15261e-05 0.0019794 1.38076e-05 6.33494e-06 4.64493e-06 3.76475e-06 8.3838e-05 7.76673e-05 5.81379e-05 0.0019794 0.000115922 9.11938e-06 9.11938e-06 3.81646e-05 1.32528e-05 0.000380196 4.32387e-06 0.000380196 6.33494e-06 1.32528e-05 0.000410215 0.000110922 1.32528e-05 0.00051123 0.000251962 0.000857904 1.38076e-05 0.000251962 3.15261e-05 3.81646e-05 7.76673e-05 0.00051123 7.76673e-05 0.000251962 8.84138e-05 4.32387e-06 3.156e-05 8.84138e-05 0.00035504 7.8448e-06 0.00310284 0.00151522 7.76673e-05 0.00628005 0.000187165 8.43313e-06 3.15261e-05 0.000349016 3.81646e-05 3.156e-05 0.00151522 8.3838e-05 5.74138e-06 0.000394946 3.156e-05 6.33494e-06 3.156e-05 3.15261e-05 7.8448e-06 4.21468e-06 3.81646e-05 0.000251962 9.11938e-06 8.3838e-05 8.43313e-06 9.11938e-06 2.09522e-05 0.000410215 9.11938e-06 0.00439847 1.32528e-05 7.8448e-06 0.00364689 1.38076e-05 3.15261e-05 0.000251962 5.74138e-06 5.3719e-06 1.10661e-05 2.09522e-05 5.74138e-06 0.00035504 3.81646e-05 8.84138e-05 0.000857904 4.32387e-06 0.0019794 0.000187165 1.32528e-05 0.000187165 0.000115922 2.09522e-05 7.76673e-05 7.8448e-06 7.8448e-06 0.00310284 0.0019189 4.21468e-06 7.8448e-06 7.8448e-06 8.84138e-05 0.000858618 0.000885689 8.84138e-05 4.32387e-06 0.00439847 2.09522e-05 0.000251962 1.38076e-05 5.3719e-06 0.00127682 9.11938e-06 3.156e-05 1.10661e-05 3.81646e-05 2.80904e-05 1.32528e-05 3.15261e-05 1.4406e-05 4.69278e-05 8.84138e-05 0.000110922 1.38076e-05 0.000696942 5.81379e-05 3.81646e-05 0.000858618 0.000349016 7.76673e-05 0.000110922 0.000410215 8.84138e-05 0.0019794 9.11938e-06 7.76673e-05 0.000187165 5.3719e-06 6.33494e-06 0.0038835 0.000857904 0.000696942 0.00310284 2.80904e-05 0.00035504 0.00364689 0.000885689 3.81646e-05 0.0038835 1.4406e-05 2.09522e-05 4.64493e-06 6.33494e-06 1.32528e-05 4.64493e-06 0.00051123 0.000696942 0.000110922 8.43313e-06 1.10661e-05 0.000858618 4.32387e-06 1.32528e-05 0.00127682 1.4406e-05 4.69278e-05 0.0019794 5.3719e-06 4.64493e-06 0.000187165 0.000115922 3.76475e-06 0.0038835 3.81646e-05 4.64493e-06 0.000696942 0.00310284 0.000885689 4.32387e-06 0.000349016 5.74138e-06 0.000696942 0.0019794 0.000110922 3.76475e-06 1.38076e-05 0.000885689 1.32528e-05 4.32387e-06 3.156e-05 0.000110922 0.000251962 0.000380196 0.000110922 0.0019794 0.000110922 1.10661e-05 0.0019189 4.69278e-05 4.69278e-05 2.80904e-05 1.38076e-05 3.156e-05 0.000110922 0.000187165 0.000115922 0.000394946 7.8448e-06 1.38076e-05 3.76475e-06 1.10661e-05 0.0019189 0.000858618 2.80904e-05 8.3838e-05 4.21468e-06 8.3838e-05 7.76673e-05 1.38076e-05 3.15261e-05 4.21468e-06 5.74138e-06 1.38076e-05 2.09522e-05 0.00403961 8.3838e-05 0.000857904 1.4406e-05 0.000110922 0.000251962 4.21468e-06 5.3719e-06 1.38076e-05 0.00127682 4.64493e-06 4.32387e-06 9.11938e-06 2.80904e-05 0.000110922 0.00628005 0.00035504 0.00127682 0.00364689 0.0038835 0.000251962 3.76475e-06 0.000187165 0.00403961 6.33494e-06 8.3838e-05 5.81379e-05 0.00127682 0.000115922 0.00051123 1.4406e-05 0.000410215 0.0019794 0.000349016 0.000251962 0.000110922 7.8448e-06 0.00151522 8.43313e-06 5.74138e-06 2.80904e-05 2.09522e-05 8.43313e-06 0.000857904 8.84138e-05 0.000187165 1.32528e-05 0.000858618 0.00127682 3.156e-05 0.000349016 2.80904e-05 0.000410215 3.76475e-06 4.21468e-06 0.00310284 8.84138e-05 1.32528e-05 1.32528e-05 3.81646e-05 2.09522e-05 0.00439847 3.156e-05 4.32387e-06 9.11938e-06 0.000110922 0.000857904 4.64493e-06 1.4406e-05 3.15261e-05 4.21468e-06 0.000251962 7.76673e-05 0.000115922 8.3838e-05 0.00035504 5.74138e-06 0.000349016 0.000251962 1.32528e-05 0.000115922 1.4406e-05 3.76475e-06 0.000110922 0.000115922 6.33494e-06 1.4406e-05 0.0019189 8.84138e-05 1.32528e-05 8.3838e-05 0.00035504 5.74138e-06 0.00127682 5.3719e-06 4.32387e-06 7.76673e-05 3.15261e-05 0.000251962 3.76475e-06 1.32528e-05 3.15261e-05 8.84138e-05 8.84138e-05 8.3838e-05 3.156e-05 
</DataArray>
<DataArray type="Float64" Name="cell variable 7" format="ascii">