<VTKFile type="UnstructuredGrid" version="0.1">
<UnstructuredGrid>
<Piece  NumberOfPoints="    3236" NumberOfCells="    2370">
<Points>
<DataArray type="Float64" NumberOfComponents="3" format="ascii">
15.1577 38.0502 0 
18.3876 15.6929 0 
-20.9514 -25.3412 0 
47.0702 22.0375 0 
19.941 5.94535 0 
-25.6291 2.27956 0 
-34.5189 35.4891 0 
0.646305 -10.6281 0 
61.426 -4.18703 0 
4.39808 -57.2689 0 
30.8097 -1.76996 0 
6.99 36.4282 0 
-29.0934 -0.627663 0 
56.4694 -14.1089 0 
33.1737 31.5464 0 
6.96069 -22.5682 0 
28.546 36.7598 0 
-15.112 39.7524 0 
-54.637 28.5089 0 
-52.5209 30.9425 0 
-8.39365 61.6718 0 
42.6002 17.612 0 
60.9585 1.15021 0 
13.9048 2.37097 0 
-7.3121 31.8753 0 
-26.2627 25.561 0 
-17.8774 -25.5236 0 
16.977 -38.4036 0 
20.0754 -21.2418 0 
-2.93182 -50.3731 0 
4.00196 -42.1583 0 
-38.128 -42.24 0 
-21.8265 -41.4591 0 
-41.0703 30.4379 0 
4.36763 -38.327 0 
-14.6593 -31.8558 0 
-17.9891 56.3332 0 
20.4551 14.7123 0 
-11.3227 9.98289 0 
-46.928 6.37441 0 
-36.6768 -43.1038 0 
-16.9519 -45.5765 0 
-0.791523 -22.8708 0 
-49.3397 -25.1866 0 
-28.4672 45.3517 0 
-12.0487 51.14 0 
-27.0631 -0.821884 0 
61.8068 11.6847 0 
11.2023 47.4647 0 
-27.0865 26.2532 0 
5.44591 43.8997 0 
-44.4907 -23.6503 0 
-56.1001 -20.6998 0 
43.3512 6.06412 0 
-41.1965 33.3337 0 
25.6941 48.9065 0 
37.0996 42.982 0 
23.1966 22.0024 0 
15.4477 -43.1007 0 
-11.3724 34.2445 0 
26.0573 17.5892 0 
51.7557 -25.4374 0 
-31.0035 7.72335 0 
-9.04859 -0.810969 0 
-8.98483 -39.0108 0 
34.0751 -18.7556 0 
53.5906 -23.2758 0 
-10.8533 -46.8681 0 
-2.41476 -45.3424 0 
-41.0941 26.3586 0 
32.184 -8.40055 0 
-27.2076 -12.004 0 
7.54811 -59.0242 0 
-48.3908 27.1644 0 
38.0013 6.88991 0 
42.5549 -6.11034 0 
-31.885 10.2826 0 
-40.7156 28.0808 0 
-9.9396 -45.5913 0 
16.425 3.28793 0 
-7.93713 18.8905 0 
22.6458 33.7348 0 
-23.3434 -23.4853 0 
-43.1524 16.5146 0 
-2.06017 -18.3103 0 
4.09285 58.9182 0 
28.5097 -13.7974 0 
46.7883 17.9094 0 
28.3041 32.4032 0 
-2.85205 -46.7627 0 
-47.6215 -27.4648 0 
-15.0283 19.702 0 
51.5958 13.6249 0 
17.5179 27.7966 0 
-50.5994 -21.1302 0 
55.7277 18.0539 0 
5.28332 27.0242 0 
7.20978 -52.2138 0 
47.1938 42.2442 0 
-53.9359 3.83481 0 
7.01093 -17.916 0 
-4.73114 1.92889 0 
-15.935 53.0824 0 
-33.544 -10.6779 0 
28.885 1.76468 0 
-31.9046 -0.426355 0 
34.4115 34.8732 0 
25.2837 -1.71928 0 
49.1802 23.4492 0 
-11.1723 -22.4563 0 
-2.71267 -8.80692 0 
-40.5028 28.401 0 
-16.877 11.8726 0 
22.5838 -36.0959 0 
37.9822 41.231 0 
-0.338618 -32.3828 0 
26.6921 9.84112 0 
3.48948 29.9712 0 
-12.6924 -53.0551 0 
-5.89145 61.9818 0 
20.3128 50.1677 0 
16.9394 -1.46845 0 
-54.2456 29.6636 0 
-2.43383 26.7361 0 
18.5827 -55.6042 0 
-3.66025 -5.23956 0 
36.5873 1.59668 0 
40.8386 23.6356 0 
11.0847 12.7854 0 
-61.7498 -10.1034 0 
26.7465 53.4086 0 
-51.9983 -2.87522 0 
26.162 9.61219 0 
-27.9643 -44.5161 0 
-9.31424 -6.17872 0 
-43.7386 6.07033 0 
-24.7899 -45.8169 0 
19.7071 35.3508 0 
9.85874 20.2412 0 
9.22075 -5.72682 0 
53.1316 -2.936 0 
61.1238 -3.54929 0 
26.8101 51.5723 0 
-14.7788 39.369 0 
-28.9179 -6.92746 0 
-27.6973 33.9036 0 
12.4391 -39.3211 0 
-56.2662 -25.8071 0 
-59.6201 -4.40721 0 
0.470012 57.8301 0 
26.9738 -34.5468 0 
15.5469 -57.2505 0 
-62.613 -6.33734 0 
24.315 -37.1849 0 
-46.9978 20.9526 0 
34.8846 22.7998 0 
21.3727 43.4127 0 
45.7681 28.6845 0 
46.692 35.9035 0 
38.5727 15.6498 0 
-52.9353 -9.94287 0 
-29.0006 -34.6666 0 
46.2809 -1.2006 0 
19.284 35.9297 0 
-50.0647 22.202 0 
51.3894 -15.1617 0 
44.572 31.7799 0 
41.267 -42.5049 0 
2.85452 41.1183 0 
7.44704 50.7166 0 
-14.262 49.8672 0 
20.6849 25.6196 0 
-47.5576 3.16495 0 
16.976 17.2011 0 
14.3302 -17.5566 0 
-21.106 46.2791 0 
-54.3677 -13.6819 0 
-22.8323 31.9222 0 
25.3722 -43.9187 0 
34.2622 -20.7363 0 
9.2312 -40.2258 0 
2.53147 55.7387 0 
-19.0567 50.6491 0 
-2.51975 9.9166 0 
-26.7295 45.2103 0 
-8.7858 52.6715 0 
33.8964 -34.3255 0 
-5.62962 13.0096 0 
26.0813 -25.4131 0 
-20.0059 -36.3262 0 
5.50435 51.5276 0 
34.2896 14.0899 0 
-13.1292 -39.6292 0 
-28.5179 -17.0804 0 
14.6596 41.9149 0 
41.1294 24.3773 0 
14.5622 28.7794 0 
-45.8314 20.894 0 
7.9562 9.78902 0 
-34.7155 -36.6261 0 
14.4741 53.7569 0 
34.1728 -10.999 0 
-33.0222 27.3043 0 
-34.6925 -35.1184 0 
-9.07763 -26.3644 0 
-4.10152 33.8063 0 
-23.0907 4.60673 0 
49.7389 -40.3725 0 
-5.50783 -11.8189 0 
0.595235 -32.7691 0 
-11.5244 -53.9274 0 
48.5471 4.64783 0 
32.7861 -54.0582 0 
16.8992 -2.42335 0 
14.9773 58.1207 0 
46.4809 -29.0674 0 
6.78188 55.3548 0 
-13.4467 43.6563 0 
-19.3122 30.2943 0 
-11.5169 60.022 0 
-32.63 45.5638 0 
-1.67014 39.1065 0 
55.1659 5.88907 0 
-14.2891 17.0876 0 
38.083 -25.9729 0 
37.8328 7.33707 0 
39.3519 -27.5318 0 
36.2733 37.9531 0 
36.5788 -48.1886 0 
-10.1642 53.3361 0 
-5.18622 47.2601 0 
38.7128 -4.87816 0 
-31.7871 8.57515 0 
-42.904 15.9473 0 
52.1171 -22.9663 0 
-38.5201 5.74901 0 
14.2532 18.2696 0 
-17.8756 16.7675 0 
-55.2588 27.2929 0 
-48.6917 -38.1956 0 
-28.7963 -40.5844 0 
-2.31329 49.1997 0 
-44.6577 -16.5107 0 
16.8124 -2.69037 0 
51.655 -26.3287 0 
-8.13448 -19.3413 0 
5.00098 29.0018 0 
-13.0154 -49.503 0 
-22.2835 43.365 0 
-14.2203 -30.9745 0 
-60.2882 0.766175 0 
19.8689 15.0671 0 
17.28 17.1246 0 
-41.1995 49.2082 0 
17.7295 -49.1724 0 
-21.1951 -54.3766 0 
-41.6121 -34.2347 0 
-10.0339 28.2049 0 
61.0643 -3.48496 0 
-34.0626 -33.953 0 
-39.2418 -42.1917 0 
13.4702 -16.8526 0 
24.5131 30.3127 0 
51.9309 -2.62641 0 
9.21569 -37.5949 0 
37.9928 -23.9138 0 
-19.2921 23.5264 0 
-31.8496 -49.3101 0 
-17.3316 2.02996 0 
44.2334 -21.2449 0 
24.5491 -10.1103 0 
-29.7175 -27.0579 0 
-33.5358 -5.27941 0 
38.1349 6.75865 0 
33.8393 22.4151 0 
-0.106171 -43.243 0 
-40.4534 49.1673 0 
26.0538 -3.96014 0 
-25.9484 53.1599 0 
-14.0543 -11.5919 0 
-19.3196 41.3153 0 
11.3994 40.7552 0 
-11.9522 -38.7701 0 
40.7826 -10.5237 0 
21.2289 -14.1911 0 
-20.2628 56.5789 0 
56.6056 -2.30193 0 
16.9235 -1.56335 0 
46.1044 -8.68568 0 
-33.614 22.5545 0 
-42.8828 -4.89543 0 
-9.38706 -57.8156 0 
-7.84507 39.4491 0 
-40.1427 38.0742 0 
-32.06 -49.0482 0 
7.84696 7.08036 0 
6.15094 -40.2355 0 
0.954342 56.6025 0 
-23.579 32.4383 0 
-28.3954 -6.84339 0 
-16.7203 17.3811 0 
15.9186 44.2303 0 
-45.5483 -18.783 0 
50.1752 21.5168 0 
-56.9669 18.1809 0 
44.0023 -36.7902 0 
54.4803 9.20812 0 
3.89363 29.9807 0 
20.1928 53.8368 0 
-11.0984 -11.3448 0 
42.9583 0.316825 0 
-19.6729 -2.53915 0 
-53.3658 28.3264 0 
-7.06642 -32.6761 0 
32.2418 -11.3827 0 
-53.6343 9.78994 0 
-35.2994 29.0832 0 
-12.8 -29.7786 0 
-42.2347 35.5109 0 
42.5113 15.1823 0 
18.4041 46.7544 0 
26.9411 -29.6198 0 
18.3336 -42.1486 0 
50.3411 4.09031 0 
36.7026 47.3902 0 
-1.12587 -6.30921 0 
-21.4462 -18.337 0 
15.3266 -48.6597 0 
41.2286 22.669 0 
-54.493 2.84863 0 
37.8143 -25.5764 0 
-42.896 -4.94004 0 
4.72534 -18.3018 0 
-19.5587 46.8025 0 
-29.6827 -17.382 0 
39.2086 -40.6416 0 
-57.0339 17.3386 0 
15.9883 -33.7513 0 
-22.4987 -20.783 0 
-43.0521 35.794 0 
-10.2353 60.9325 0 
-0.867974 31.5455 0 
38.013 -25.0641 0 
1.77764 41.1504 0 
24.0256 -50.5126 0 
-36.9237 28.6671 0 
-4.47881 37.4388 0 
1.50271 -20.3339 0 
-17.6178 12.5387 0 
57.424 18.7267 0 
54.928 8.30163 0 
-33.2509 12.3151 0 
-30.5653 13.5579 0 
-6.47552 -12.1333 0 
17.6608 -23.4806 0 
-32.8857 47.7753 0 
0.116625 11.4736 0 
-0.0597446 58.0162 0 
-12.6356 -29.2925 0 
-21.3258 24.882 0 
12.211 -12.4421 0 
4.90268 29.1832 0 
-25.9894 15.7967 0 
-39.5292 12.054 0 
26.276 -28.8585 0 
6.20051 35.994 0 
-57.0716 3.61572 0 
35.4604 49.0894 0 
-40.5631 1.67601 0 
2.28604 -0.956549 0 
-5.54008 -39.2861 0 
37.1302 11.264 0 
12.6523 9.73508 0 
-36.8332 20.7044 0 
8.49188 -39.6781 0 
18.459 -34.2681 0 
1.08313 47.9385 0 
47.567 8.11707 0 
-21.5339 25.3118 0 
6.594 -10.982 0 
-45.1464 -6.69764 0 
49.8355 33.2758 0 
25.7079 17.5875 0 
23.7992 11.1568 0 
16.1375 -16.3149 0 
-36.4774 20.8191 0 
-21.5124 9.38126 0 
45.8028 -15.3678 0 
-43.0644 -15.2321 0 
-16.0252 -20.1259 0 
-53.358 23.8312 0 
-8.60179 7.34789 0 
17.2462 59.648 0 
-35.4067 -13.4711 0 
34.3609 -17.6943 0 
31.7447 -8.24187 0 
-12.3401 9.85204 0 
18.3981 -15.7304 0 
-2.22789 11.2967 0 
46.9203 13.9676 0 
-13.1366 32.5896 0 
-35.0088 -47.3435 0 
-6.9387 42.0024 0 
8.5219 -50.8335 0 
5.96648 -58.8959 0 
-24.5417 -54.6327 0 
-25.1723 31.9353 0 
-48.1123 21.227 0 
-8.24894 -18.555 0 
24.3521 39.9664 0 
-44.997 -33.4024 0 
-10.6806 11.9657 0 
8.0827 -34.2327 0 
33.5819 -34.6797 0 
13.1511 8.02574 0 
-29.6766 38.2283 0 
-10.3464 -0.31607 0 
0.279624 18.5916 0 
-12.6923 -50.4982 0 
-12.3081 -3.0331 0 
29.9737 -49.7753 0 
-3.41437 0.34004 0 
14.2524 6.32096 0 
48.1655 24.6364 0 
-32.6167 -41.1156 0 
-5.13577 45.2383 0 
10.0046 -41.4168 0 
-13.7312 -19.778 0 
3.58658 25.5269 0 
16.0223 27.5162 0 
32.9607 -54.6291 0 
34.1224 5.94741 0 
-1.11118 18.9996 0 
-18.9464 17.541 0 
-41.0547 -2.34484 0 
30.7919 -37.8282 0 
-15.5566 -2.39302 0 
11.6772 -11.6237 0 
-46.8847 -7.6388 0 
-61.4799 10.3716 0 
-20.5329 -35.326 0 
10.7568 -57.5909 0 
13.9343 35.9579 0 
12.8848 -34.569 0 
39.4325 -40.2213 0 
4.47951 8.56599 0 
-22.7931 -14.7102 0 
-2.75701 -38.3151 0 
-21.9496 -34.4719 0 
-0.419736 19.4253 0 
-33.9012 -9.6452 0 
52.0435 -24.0555 0 
-56.3639 -12.1144 0 
-40.223 -24.6549 0 
48.0268 42.0837 0 
36.939 -41.5611 0 
32.3171 -55.134 0 
26.4679 -38.1795 0 
30.7049 -1.36732 0 
32.9457 19.9731 0 
-54.7013 -5.36119 0 
-50.5242 -36.3899 0 
26.4122 -38.7701 0 
-0.539183 29.3367 0 
-0.776353 43.1143 0 
24.8263 -44.6725 0 
-0.0537198 3.57542 0 
54.4357 26.4914 0 
52.0241 13.2375 0 
28.3398 10.5524 0 
-57.8363 -21.8018 0 
2.78128 13.0487 0 
30.0638 -48.5607 0 
21.1739 25.0164 0 
20.1067 -6.67588 0 
-16.5924 -39.4709 0 
-3.12014 -41.657 0 
-18.334 31.2849 0 
28.7538 -31.719 0 
5.55475 44.2854 0 
43.9496 44.4021 0 
-9.21557 8.45162 0 
25.2637 -37.1997 0 
-20.9478 -10.9831 0 
5.45318 -63.0785 0 
-15.4949 -10.3286 0 
-13.7608 -12.7185 0 
51.8219 -12.0457 0 
9.83747 -25.5737 0 
-16.4023 -47.0656 0 
40.1565 4.98101 0 
-52.1365 -30.8455 0 
-5.61841 61.939 0 
0.781638 -61.7828 0 
-27.8277 34.3709 0 
[...]
<CellData Scalars="wall variable 0">
<DataArray type="Float64" Name="wall length" format="ascii">
2.08158 11.1592 1.18555 0.214301 8.12384 3.72246 0.446893 0.255689 0.437906 3.94877 0.284362 0.430495 5.83816 1.37874 9.37033 1.1906 8.42377 2.8481 0.802835 9.49098 3.89141 8.66838 0.449951 1.51712 3.2659 3.1451 1.53387 6.60014 3.8908 2.0902 3.3995 5.60394 4.78119 2.54379 6.6919 0.969259 2.30276 1.38791 7.07013 0.21049 0.647538 7.7605 2.46539 7.77513 0.69091 0.969259 0.69001 2.56119 2.71415 2.19177 2.23372 1.14594 1.79818 5.11358 3.61786 1.70917 2.27729 2.27972 2.09984 0.750746 5.0235 5.54565 0.494618 1.3896 7.45972 0.491764 2.31574 1.51689 7.96074 1.15647 1.40266 4.15741 0.799292 6.01454 1.81644 3.22083 4.16712 2.01724 1.87466 8.73161 0.376831 1.44988 11.1412 1.06572 2.49782 5.21845 4.90431 2.21856 2.33254 2.36933 1.56926 0.237154 4.82813 0.707131 2.46183 1.1905 6.28824 0.0351416 2.79278 5.53599 1.71918 0.680566 2.27103 0.857901 8.9897 4.02914 6.04291 4.91884 0.559751 3.56674 1.50381 0.483884 2.95759 0.890816 5.53262 3.41047 0.364505 9.10177 1.50644 1.6999 2.41219 1.07246 2.3287 1.90254 0.165315 8.01136 0.89949 5.44514 1.98213 2.26407 7.77513 0.499522 10.2945 1.82352 1.06394 1.16037 12.2096 1.60924 2.76436 1.27562 1.19525 3.41182 1.0356 6.21825 1.72252 0.499522 1.38512 1.0356 4.68141 6.18091 0.401383 1.15984 9.20017 4.19229 3.31532 1.03259 5.61548 6.64881 0.454235 3.56674 7.19296 0.49387 2.00546 8.66838 1.77003 5.7217 5.41668 3.70561 4.4556 1.61604 2.74037 6.70334 8.36257 0.381463 3.46421 6.48574 1.19324 2.61971 2.60878 5.8143 3.48127 10.0366 1.42868 9.66501 0.579548 0.219217 7.05112 4.37661 3.99634 5.17799 0.301868 5.21957 4.60611 2.38861 7.84706 1.19525 2.28847 4.01528 1.81714 2.38058 0.47554 7.11518 3.95284 6.8374 2.87544 0.596458 1.97836 0.220226 2.8979 2.35423 3.35655 0.799292 1.09921 2.17261 2.33672 6.43564 0.135856 14.4233 0.848104 0.707131 5.33627 7.06897 0.267668 2.37084 1.20817 1.67906 2.38491 0.0351416 0.318438 5.26317 2.71266 0.757595 6.13049 0.198863 4.31864 5.43579 1.38811 3.75276 7.41749 2.33712 6.48883 5.45157 5.12208 0.230414 2.56902 5.88426 3.85707 0.11721 0.658731 13.2456 2.57261 0.579548 0.410356 4.52451 1.21903 2.18708 6.35196 3.14442 6.02473 0.768886 1.27996 8.23967 2.29542 4.42146 1.36523 1.96797 3.01534 4.45116 0.498983 5.76676 5.88186 4.57077 2.29542 1.10102 3.75276 2.46675 3.86587 5.87642 2.75086 0.352668 8.898 0.814066 12.2287 1.36769 6.93394 0.534315 8.43795 1.19262 2.41064 2.6061 5.45964 0.267668 6.63872 2.62499 1.08188 1.92619 6.63583 4.05682 0.498983 4.45116 1.48101 1.96861 2.8979 2.65702 5.28531 5.11182 2.56119 1.18282 3.42338 3.57229 6.52905 8.12384 1.71885 3.27753 6.0842 1.39179 7.25512 2.67061 4.35936 0.750746 3.28037 0.701103 0.401383 1.38324 1.92606 1.57804 4.04193 5.2316 11.6862 3.80971 1.78396 1.42882 1.65441 4.18701 4.71413 5.68038 3.77171 0.801179 0.722648 7.16319 0.696774 5.33919 1.94153 1.15647 0.152857 0.962716 0.301868 2.71493 0.449951 2.00546 1.05184 9.03469 1.32236 1.26321 6.98765 2.53152 1.77576 4.51759 0.914956 2.97813 1.05184 2.80712 5.43863 3.77171 0.878736 1.68807 4.9051 2.55176 7.36933 1.24139 4.37661 4.61389 2.06563 8.43795 3.38762 0.430495 7.77385 1.50381 3.20138 5.61021 1.06837 5.05265 5.29068 0.731433 0.312185 5.60168 5.77211 5.03998 1.50494 1.21136 2.49611 1.16785 4.4254 0.380906 2.0278 3.84227 5.8968 4.79015 1.10789 0.594369 10.3584 1.29094 1.71955 0.885051 12.2243 0.329827 0.790599 1.89218 0.757595 5.02013 2.26026 1.62887 9.13892 1.75675 4.73978 5.95697 2.07099 0.255689 5.86492 2.40563 2.72033 1.1491 5.07906 0.607756 0.799155 5.42056 0.402883 10.3033 1.72664 1.71064 2.33672 4.49554 5.77211 1.35809 1.01651 6.70334 1.57065 1.23831 9.90862 3.3995 6.47429 3.85154 0.515149 3.20693 3.50148 3.84662 0.443717 1.05067 3.52734 0.263822 1.23831 6.68806 3.26848 4.80387 1.44167 0.970038 2.54133 7.68246 3.15695 3.3889 2.36933 1.49765 3.3926 7.01663 3.45052 6.27104 1.52547 3.47372 0.596458 2.43132 0.456752 7.008 2.917 1.99118 5.21845 1.58345 1.84071 8.84754 1.39762 0.24413 8.24391 2.06501 1.81644 3.26016 3.00665 3.9057 8.09067 5.85557 1.34872 1.53387 3.20693 2.83575 4.46713 0.616291 5.59408 3.56805 4.31226 1.58462 14.4233 3.58512 3.0863 2.4733 1.00983 3.86874 6.70978 0.318438 8.9897 3.64443 0.916653 5.78137 2.16934 0.352043 10.1834 2.62499 3.2041 3.64598 0.237154 2.05187 4.05682 0.450636 7.23076 0.181289 1.82766 5.76676 3.64598 4.66515 5.33627 4.82813 0.396463 1.65089 11.651 1.11636 12.2243 0.41212 0.944365 1.46723 4.43742 1.02329 8.34043 4.80497 3.72453 4.72925 3.39676 0.890816 3.80388 1.41832 0.381463 4.53237 5.87006 1.3896 7.49331 0.520733 3.84227 4.88096 1.03259 1.03052 2.39801 6.04291 4.22281 1.26321 1.33023 1.1491 1.60581 1.44933 2.33539 3.87602 0.545227 11.0976 2.34951 1.07246 11.6985 0.767278 1.68748 6.21825 1.38512 3.39343 4.73733 2.56902 0.417734 8.87563 0.396463 4.52991 1.04921 4.29775 8.38541 5.11182 0.745714 5.21957 0.962716 4.79136 6.60085 0.582206 3.95284 1.96861 0.550281 6.96225 3.71672 0.974721 0.0683713 0.417741 8.74795 0.381064 1.61604 2.23411 3.58938 0.916653 4.15235 0.455251 5.25766 5.68809 0.331537 3.32074 2.08158 2.07099 5.36104 3.83309 2.13698 0.722648 8.19794 0.705434 7.07013 1.50494 7.06638 1.09921 4.15741 7.535 1.21136 7.535 1.40266 2.32288 6.94764 0.930113 1.48338 6.14664 6.54913 5.53599 2.15166 1.37806 1.32057 3.9057 1.69427 0.673815 2.87113 7.38847 5.32823 8.60046 1.67906 3.74519 0.602818 1.10991 0.939375 6.14664 2.79278 2.38491 8.60046 1.19015 6.4733 0.835459 1.42868 1.83021 1.81714 2.0036 0.874289 3.84662 0.554143 1.86293 2.55925 3.90348 7.08366 1.34872 0.923337 1.30747 4.13582 1.10203 1.28921 6.60014 5.80342 6.28824 1.66258 3.60257 0.663015 5.93236 1.37207 1.57804 1.14142 3.05324 3.48127 2.57261 0.285906 6.48149 6.98765 4.22281 5.83169 0.795244 5.72164 11.6862 0.622701 2.27221 4.9891 0.766838 1.60924 12.2096 4.42516 6.65089 0.274336 2.76155 5.74125 1.27947 5.17799 5.22569 3.63921 3.53013 3.28745 1.84071 4.95131 7.21076 5.13408 0.140114 1.25629 0.352668 5.21125 4.51703 6.36785 3.02457 6.16975 1.22722 3.32074 6.11084 2.86601 0.986854 11.1592 1.09962 13.1487 1.42882 1.81475 11.4468 1.70554 1.44988 3.29702 2.98319 3.45052 7.48748 2.11819 1.03052 3.31532 0.805493 4.08549 0.794578 1.70173 5.8022 1.1833 9.08338 0.326548 0.927964 5.89928 1.73682 0.889502 1.83309 7.38847 4.10023 5.60394 0.69091 2.26407 5.88426 4.73733 4.47921 0.484478 6.08119 2.71415 6.52905 0.397224 4.29775 3.25327 0.140114 8.33163 1.08964 0.673815 1.55103 0.251198 10.5565 2.97813 1.82201 0.996201 6.79559 9.03469 3.05324 9.19686 2.38058 1.83021 10.0366 4.49554 2.17261 7.06638 5.03998 0.515149 9.438 2.85651 7.13911 0.982948 2.83575 4.9051 1.92804 2.6061 4.53947 6.01184 0.205205 0.181758 4.10145 3.84485 2.93746 9.08338 1.99254 5.8968 0.520733 4.02914 0.454235 3.89141 4.31387 0.416615 9.28955 4.51759 3.70562 3.21593 2.14055 0.854761 0.45914 7.30265 4.11873 8.38207 0.510634 6.63238 2.08961 1.37272 4.31264 5.12208 2.62672 7.98143 2.99303 8.31821 0.944365 7.24707 5.7759 3.96158 2.52104 4.32378 3.52508 1.51014 1.8672 6.53518 2.91771 5.8873 5.11967 11.3316 0.378015 7.68246 2.62357 0.66001 5.78137 3.58938 3.52734 8.23253 0.805493 4.19229 2.92658 0.983987 0.285906 6.35196 1.56837 1.42407 1.61299 0.674603 7.28047 0.744332 1.7372 6.25059 2.30924 2.49911 8.99257 3.04542 0.350748 4.86543 4.4556 1.44347 3.71672 2.99951 1.75814 3.02457 0.362009 2.32512 7.83413 6.4587 3.85528 10.4437 1.38324 6.18091 0.152857 7.96074 1.45107 4.79136 1.48101 8.38541 3.91981 7.26435 0.854761 0.692412 1.37874 5.06618 3.35556 3.10356 6.94764 1.7646 2.86601 5.68241 1.97836 3.47372 1.29801 2.48567 7.15755 1.65484 6.29553 3.52508 0.595135 5.039 0.680566 0.905952 7.21465 0.796081 4.13582 6.08784 0.184905 5.61548 4.88096 2.0278 8.86979 0.501688 0.665166 7.53477 2.27729 2.64932 8.98661 2.51104 5.22569 3.99634 1.24139 1.13366 2.7635 2.48089 3.96158 0.513258 5.68809 3.70225 7.83003 1.59423 7.92348 0.937856 0.790599 4.29919 3.14886 2.009 5.07906 1.33023 1.32236 6.79559 8.19631 0.49387 7.86429 0.810667 4.86327 0.632781 6.27826 0.696774 6.6919 5.32938 0.167501 1.06837 0.735186 4.36239 0.48647 1.18282 0.69001 3.00665 5.20302 2.35423 2.12726 1.55103 1.69427 3.48037 5.53923 0.491764 4.09981 0.916921 0.10189 2.19804 0.24413 2.0036 4.01528 3.8944 3.84485 7.93381 0.622701 5.2316 3.55483 5.11358 2.92935 2.2695 3.50826 3.96291 6.16975 1.75814 3.84877 4.80219 0.77692 7.04339 2.30276 1.58209 5.69299 4.86551 2.55176 6.01184 3.19638 5.83298 1.74996 6.99353 4.10395 2.31883 0.352043 0.924778 8.63211 1.36769 2.09468 2.96449 0.770629 4.10395 0.358887 3.19521 4.72925 3.8567 1.52671 3.9649 1.51014 6.29553 4.67192 1.85826 2.44232 3.90348 1.16933 4.73978 1.03937 0.554299 0.595135 4.32378 1.74369 1.49765 2.33254 6.74579 5.11092 5.63196 1.96797 3.7401 2.00415 4.10023 2.87113 1.08964 3.67666 1.47609 4.78119 2.23411 8.36257 1.01651 4.28283 3.26848 0.378015 0.927964 7.41421 2.76436 0.274336 1.31949 5.60037 0.635535 5.22142 7.13911 1.56512 0.457107 6.39286 4.03766 2.27103 5.039 0.554299 5.33842 3.65416 6.68806 1.57065 2.74037 0.381064 3.29347 0.889502 7.57958 4.80387 4.28283 1.35809 1.44935 0.268592 7.36525 2.70859 2.92658 6.64881 0.184905 0.735186 5.60168 7.1464 0.396648 2.64049 7.01294 0.268592 8.86979 0.380906 2.75502 1.19015 8.51079 0.912081 2.98955 0.694856 4.60611 0.745714 5.28531 5.96074 4.95259 0.674603 2.73517 2.99951 6.96225 6.29444 1.67711 3.83309 1.38791 7.04339 0.220605 5.37187 4.42516 1.16037 1.1904 3.41729 3.14442 1.84378 2.38635 8.38207 3.75432 0.416615 0.797588 3.38853 6.07339 0.559751 4.72362 0.736761 7.86429 7.19296 3.09592 6.15153 3.58512 2.85229 3.01816 6.51808 3.71426 6.48574 0.868382 0.0676751 0.632781 0.376167 2.73669 4.47592 1.7372 2.86062 0.775909 6.48883 4.24704 4.909 3.04542 2.73517 1.61299 1.25629 10.5565 2.25766 8.898 1.83309 1.98213 5.93679 0.616291 0.135856 8.71516 2.15166 5.90161 2.19177 5.25727 5.93236 0.66001 7.07928 4.38375 5.26317 2.16934 0.376167 2.33712 4.31264 0.335738 5.43579 4.88657 2.80712 1.77576 0.243478 1.48677 0.576131 5.11967 4.29745 4.96912 2.53711 2.94952 10.3033 1.50413 0.813448 6.57159 2.73669 4.88657 4.31864 4.80808 0.0584114 0.523041 1.73273 1.13366 3.38762 0.534315 3.91467 7.70955 2.11262 1.16134 4.43742 3.72753 6.50723 4.7846 7.34197 3.01816 1.33326 3.8176 2.05091 1.77822 0.231029 2.08209 1.61517 1.25321 2.92935 1.79818 8.21155 0.888244 6.77522 2.30885 1.2718 3.29445 2.8481 5.90161 0.663015 7.28047 4.95259 0.550281 0.777036 2.23372 0.582206 2.10903 0.73709 0.797588 3.21593 1.62323 3.69051 0.857884 6.8374 4.86327 5.99353 1.70173 2.03245 5.0409 6.51808 0.21049 0.705434 3.72552 5.83298 1.03736 2.96449 8.46469 4.40055 2.24494 1.01757 4.55951 6.63238 3.12112 5.64468 3.38853 0.73709 5.90076 1.45107 1.51689 1.16195 5.90076 2.10903 6.60085 5.53262 3.39676 3.19521 7.57506 4.58772 2.80035 2.48567 4.27622 1.77003 4.86543 0.914978 5.82778 1.31949 6.65089 5.37187 0.701376 2.85229 6.70978 2.73547 5.09089 2.97748 0.608319 0.0736012 1.33326 4.21522 4.31387 3.1451 3.00979 3.21794 1.21903 2.12726 6.43564 1.71064 1.01296 1.40704 0.164553 1.09962 2.55923 0.814066 2.25766 0.251198 4.80497 1.25023 2.917 1.2216 0.930113 3.10356 0.661546 7.24707 2.72218 4.29745 5.8873 3.05422 3.69051 5.83816 5.61021 3.09148 5.06618 4.88299 4.80219 3.7835 3.87654 2.21228 4.35936 5.91871 2.26026 0.933952 5.0235 1.21809 3.27095 0.594369 1.17601 7.46299 8.28235 3.85137 1.58881 2.90375 5.30615 1.41832 4.1837 1.60052 3.03043 0.596992 4.61389 7.05112 0.472617 8.21155 1.14594 0.777036 8.74795 3.36664 7.49739 4.79015 1.99254 4.21522 4.52451 4.44779 1.01296 1.72664 2.94952 5.43613 0.13983 8.59975 2.00415 2.41305 4.92697 3.91981 3.12055 0.364505 1.27592 8.84754 3.28745 1.14166 1.58881 10.9602 0.542086 3.26016 6.01454 3.35655 5.20302 0.455251 4.9348 4.06178 1.7226 1.02329 1.16134 6.20401 5.63994 4.1837 3.80388 2.95759 2.27838 2.63336 1.91132 2.4733 3.94953 2.48089 6.00557 2.75677 6.27645 1.56837 2.18708 3.21794 2.36237 1.53804 5.21684 1.10203 0.796081 3.59389 2.46675 1.38811 0.335738 1.37272 3.39343 9.20017 3.4478 4.47921 3.07254 5.59408 5.93679 5.44514 3.29347 5.25766 6.20401 2.11262 3.10684 2.31883 0.770629 1.03736 3.19638 4.53947 1.08188 10.1834 3.74519 6.13049 1.89218 0.937856 2.2989 1.80369 1.22697 0.665166 5.22696 5.60037 5.82778 3.58985 1.47479 7.01663 0.629003 6.08784 1.30747 4.95491 1.39979 0.608832 4.7846 5.43753 2.27214 7.02728 6.25059 4.47592 0.523041 8.0335 4.91884 2.39801 2.11819 5.79421 4.72362 3.20138 9.10177 3.12055 3.35556 3.09148 0.976629 1.19262 2.06563 0.596992 2.74136 5.11092 8.59975 4.27622 1.29801 1.52547 3.19457 0.870355 1.4783 5.7217 1.9916 7.443 2.30124 3.26746 5.02158 2.61694 6.55965 1.21809 1.03503 1.00983 1.91132 7.21837 1.39809 0.484478 3.4478 1.15984 0.701103 5.72164 7.86541 3.41047 7.57506 0.358887 6.99353 2.41064 0.976629 0.13983 2.75502 4.4254 3.53749 6.4733 0.542086 1.52424 3.85155 3.94877 7.12682 3.21393 2.54485 5.10162 0.10189 10.4246 0.982978 2.75066 7.66582 0.483097 0.878736 5.68038 1.99219 1.71885 0.214301 0.429484 0.47554 9.19686 1.14142 1.92606 10.4437 1.27592 7.12682 0.437906 1.83282 3.01558 3.48037 1.39762 2.77025 5.87642 2.46954 1.69494 1.8672 3.9649 5.41668 1.4783 3.75403 0.952398 2.66666 4.8268 2.61971 1.10289 2.69735 5.02158 5.18098 4.53237 5.8143 0.634669 9.23441 1.74969 1.01058 6.00557 2.7635 1.73273 1.23637 3.60257 3.71938 1.06739 2.76155 2.51104 3.94953 3.0863 6.15153 1.74369 6.53518 1.69494 2.35125 0.905952 0.629003 3.3926 1.58209 7.7605 0.0720703 2.90375 1.14166 3.53013 0.862399 1.00304 5.21125 2.75086 0.30362 1.81475 1.78396 1.33132 2.93951 2.30924 8.0335 0.0584114 8.84929 1.80369 1.11116 4.29919 9.13892 0.913743 2.88552 4.63344 5.87006 1.74969 1.42421 4.09981 7.45972 1.92804 1.68807 0.483097 4.10097 1.95353 2.37084 5.45964 2.54379 1.47609 4.0815 1.90254 5.62236 5.32938 3.75261 5.78469 2.36237 2.08961 4.55951 0.697159 8.09067 1.32057 8.87806 3.86392 0.801179 7.36933 1.74996 3.72552 8.19794 2.98319 2.01068 4.3021 3.19457 6.27104 3.01558 1.36093 0.618055 3.12112 1.16195 2.31574 5.53923 0.914978 10.0196 2.27972 7.53477 3.58985 3.27095 6.55965 2.71836 10.3584 4.1128 8.01136 0.685363 7.21076 1.00304 5.86543 3.71938 1.66258 1.1905 5.25388 6.00417 1.34023 2.17341 3.8908 1.28921 5.21684 3.46421 7.49331 0.494618 1.94153 5.93428 0.868382 1.52424 10.9602 3.85137 5.63994 2.78986 0.874289 7.93381 4.10145 3.23248 8.51079 2.71836 7.21837 2.63336 1.01058 5.86543 1.50126 1.29094 1.84946 4.95131 1.58345 3.11426 2.54485 1.06326 2.30124 1.04921 5.43393 3.56805 3.07254 0.89949 2.46539 3.25327 2.17439 5.43613 2.53711 1.25322 6.05943 0.834637 11.3316 0.576131 0.857172 11.1412 1.70554 6.27826 0.0676751 5.93428 5.33919 0.641926 0.672938 0.28341 7.25108 0.798229 9.438 3.85154 3.10684 6.50723 2.36815 0.554143 3.50148 3.65416 0.618055 6.97943 6.07339 5.64468 2.74136 3.03043 1.58828 1.92619 3.01534 5.63196 0.608832 3.8988 5.74125 1.06739 3.09592 7.34197 0.312185 5.80218 1.01296 4.76915 7.1464 1.9916 4.2821 5.86492 0.446893 0.0490805 4.86551 2.40934 3.70562 5.43863 4.96912 2.72218 1.62323 1.23637 7.70955 0.580633 0.924778 2.05187 1.56926 5.80342 1.58828 1.60052 0.219217 1.27947 3.8988 1.39979 0.414374 0.450636 6.63583 0.48647 7.59995 2.64049 0.888385 6.06905 3.42338 1.72252 1.68748 0.230414 0.692934 4.68663 4.60487 10.2945 4.52991 0.41212 0.885051 3.94461 4.31226 5.43393 5.50884 0.610183 4.46713 0.982948 5.22142 1.55651 1.2718 3.77033 4.90625 5.50884 2.30885 3.00404 0.939375 3.36355 3.8567 1.65484 1.71918 6.54913 0.418129 3.70225 5.36104 5.95697 1.16933 2.55925 0.736761 5.79421 5.8022 5.99353 0.810667 1.50126 5.25388 2.46183 0.848104 1.58462 3.94461 1.71955 3.50448 5.42056 1.80556 2.41305 3.7401 1.36523 0.0720703 0.647538 8.46469 2.09468 3.72453 5.30615 1.99219 7.16319 2.13698 1.67711 3.14346 3.27753 3.39443 2.80411 4.24704 1.42407 6.27645 1.84378 8.23967 1.20222 1.39179 7.56564 2.0902 2.17341 3.61564 2.1712 0.641926 6.47429 5.13408 0.685363 0.165315 4.0815 3.67666 8.33163 0.164553 1.92786 1.1906 2.96266 2.99303 3.15992 0.369203 1.65441 13.1487 1.77601 5.88186 1.82766 1.25223 4.34054 5.95141 5.25727 3.61786 3.55483 4.04193 1.37207 4.92697 1.80556 0.799155 4.46888 0.45914 7.26435 2.96266 9.49098 1.95149 1.14211 8.31821 1.86308 10.4246 0.916921 1.42421 9.23441 5.0409 0.9601 1.85826 2.54983 1.10289 1.19324 3.71426 0.701376 0.220605 7.56564 3.28037 2.09984 10.0196 5.7759 0.661546 5.68241 6.11084 0.331537 0.513258 2.60878 5.18098 3.26746 1.06326 3.21393 1.86308 0.634669 2.10021 1.22722 3.96291 4.88299 0.722887 11.651 3.72246 6.0842 3.14346 6.29444 0.77692 0.0490805 6.12938 0.243478 2.53152 6.48149 3.73266 2.71493 7.84706 6.01459 1.51712 1.25322 6.57159 5.85068 0.88368 3.77033 2.93381 2.80411 0.858978 2.98955 0.319543 4.58772 0.350748 4.909 1.25023 8.34043 1.7226 0.652757 3.10974 4.90431 1.99118 2.05283 0.417734 0.397224 3.57229 6.06905 1.83003 0.362009 6.36785 1.50413 0.402883 1.16785 4.11077 0.456752 2.49782 3.3889 6.39903 2.35125 2.46954 3.86587 3.59389 7.21465 4.36933 3.95643 5.89928 0.635535 5.22696 0.501688 1.37806 8.71516 1.20817 1.95353 0.541746 8.87806 9.66501 0.835459 3.53749 1.10789 7.49739 0.410356 1.83282 9.37033 0.692412 2.14055 2.38635 6.97943 1.36093 4.36933 8.98661 2.35794 0.970038 5.40781 1.26744 5.95141 2.27614 0.547539 4.3096 0.758997 1.60581 2.72033 3.41182 7.11518 0.429484 3.85528 4.68141 2.61694 2.69735 2.54983 4.67192 1.75675 4.2821 4.76915 5.2582 2.27529 2.32512 1.83003 0.888385 0.396648 1.05067 7.91964 4.08549 8.23253 1.74404 7.41749 1.10102 2.77025 1.52671 3.36355 1.10991 4.36239 7.01294 7.59995 1.73682 3.95643 5.40781 1.44167 7.57958 0.30362 12.2287 2.55923 11.4468 1.44935 9.90862 0.263822 0.983987 2.70859 6.14742 0.205205 1.1833 4.38375 1.01489 5.54565 0.933952 5.02013 2.71266 2.62357 2.54133 2.35794 2.64932 1.70917 1.01489 7.07928 2.40934 5.69299 0.862399 3.63921 1.84946 7.443 0.443717 7.08366 2.44232 0.9601 2.03245 0.794578 7.91964 0.167501 5.62236 2.3287 2.34951 1.96633 5.05265 0.220226 7.15755 2.80035 0.319543 5.96074 2.65702 1.22697 8.84929 4.80808 0.198863 1.74404 0.602818 5.32823 5.45721 6.74579 2.21856 3.10974 4.44217 5.29068 1.96633 11.0976 4.57077 1.77601 1.26744 2.40563 3.50448 4.42146 0.607756 8.19631 0.996201 1.50753 7.30265 4.46888 1.92786 1.40704 4.44779 2.17439 0.417962 0.888244 8.42377 3.2041 6.63872 7.06897 4.66515 3.2659 6.01459 2.38861 0.694856 0.858978 3.39443 2.75677 3.00979 0.990473 3.70811 0.420308 4.66129 3.15992 7.98143 0.326548 2.93746 3.8944 2.28847 1.27562 7.41421 0.284362 3.85155 2.78986 2.27838 0.483884 7.77385 0.88368 1.2639 4.95491 0.923337 5.85557 0.610183 4.90625 3.22083 2.06501 0.697159 3.41728 2.75066 5.59239 2.52104 7.83003 0.418129 1.86293 2.36815 3.72753 1.46723 4.15235 3.64443 0.857901 4.03766 1.48883 4.9348 8.63211 0.580633 3.91467 6.93394 0.834637 7.48748 2.43132 2.87544 0.857884 3.05422 2.91771 1.55651 6.39286 3.93389 1.39245 1.95149 0.802835 3.29445 3.41728 3.86392 0.541746 4.10097 7.66582 3.75432 4.11873 1.50753 1.82201 0.914956 9.28955 0.912081 3.23248 0.181758 6.14742 7.36525 4.38603 0.950888 6.00417 1.53804 5.78469 1.48883 5.33842 1.03937 5.45721 0.652757 4.06178 3.70561 4.8268 5.80761 3.05148 0.974721 1.44347 0.813448 6.39903 3.15695 1.47479 1.2639 5.85068 3.11426 8.24391 2.19804 5.10162 3.07256 3.85792 2.49911 1.11116 2.2989 7.92348 4.3021 6.04319 0.934347 3.24984 2.31115 3.75403 0.870355 4.16712 5.59239 0.982978 1.18555 0.986854 1.7646 2.32288 0.417962 6.05943 2.93381 3.00404 6.77522 2.05283 4.51703 2.10021 1.65089 8.87563 4.11077 2.49611 1.48338 1.2216 7.008 
</DataArray>
<DataArray type="Float64" Name="wall variable 0" format="ascii">