<VTKFile type="UnstructuredGrid" version="0.1">
<UnstructuredGrid>
<Piece  NumberOfPoints="    3333" NumberOfCells="    2446">
<Points>
<DataArray type="Float64" NumberOfComponents="3" format="ascii">
-28.4086 34.3297 0 
8.70795 8.37642 0 
50.1352 -6.22008 0 
1.12164 -61.7355 0 
-27.1783 48.2307 0 
-37.5445 17.1973 0 
8.34429 -42.9794 0 
-55.8253 -12.5509 0 
-0.0200871 -51.7548 0 
1.4513 -27.0025 0 
-56.5884 14.9821 0 
47.3604 -22.5714 0 
-14.2277 40.9462 0 
48.0748 -29.9973 0 
13.6253 13.389 0 
-10.6013 -42.2636 0 
-20.6974 18.2169 0 
-50.4055 31.2304 0 
-29.4483 -38.1773 0 
31.4706 -19.0643 0 
-4.14306 27.9187 0 
39.9848 -21.1997 0 
-49.4666 -40.8732 0 
5.65279 0.57703 0 
1.02612 -31.143 0 
54.9511 -10.3098 0 
-26.0726 -32.6816 0 
-27.0976 -54.994 0 
-56.6192 15.7513 0 
-58.3414 -9.66978 0 
26.8176 50.2068 0 
44.7242 22.9181 0 
-21.967 32.8234 0 
-29.3502 -2.0553 0 
-28.6289 -14.1563 0 
-11.904 -41.9989 0 
-13.8618 35.7655 0 
-9.10666 50.3502 0 
-6.29698 4.19979 0 
10.7258 -46.8459 0 
39.3908 35.1424 0 
-50.1544 -3.84609 0 
-0.225433 -10.213 0 
49.007 16.0055 0 
17.746 48.8407 0 
-27.5833 41.8633 0 
-12.7584 -1.00545 0 
-27.6923 33.3197 0 
5.87362 21.4151 0 
-4.50247 -43.3498 0 
40.6867 -35.5371 0 
-0.801469 -31.3329 0 
-25.3718 -9.29141 0 
45.589 -41.9378 0 
-25.4631 -24.1153 0 
-44.1271 6.98613 0 
-10.1546 -52.7633 0 
38.015 -40.7985 0 
13.7822 -27.2493 0 
17.7031 54.9389 0 
-26.681 33.295 0 
-35.2464 0.38876 0 
-5.29457 -43.6149 0 
41.6662 -26.6906 0 
50.3096 9.85899 0 
9.28255 58.1813 0 
24.7032 31.4213 0 
-23.999 -37.9802 0 
24.2086 -17.7028 0 
-32.6876 41.1418 0 
14.8767 -3.92023 0 
-17.4837 37.524 0 
42.2466 -43.5829 0 
35.3885 -13.4507 0 
18.5075 2.50944 0 
-48.3375 -20.8057 0 
24.8586 -27.3849 0 
-32.1792 -32.5749 0 
26.5197 -47.5515 0 
-11.4507 50.6137 0 
-34.5453 0.0617917 0 
31.191 -39.4288 0 
-10.3057 -10.889 0 
-14.0646 -42.8987 0 
55.0045 27.4152 0 
0.158716 26.8548 0 
30.9809 10.8795 0 
-1.0058 59.2039 0 
-47.439 9.14408 0 
-38.4888 -9.69398 0 
1.98828 -49.4323 0 
-29.383 -29.1355 0 
24.5502 33.0642 0 
54.4745 -14.6308 0 
30.3206 -40.1383 0 
23.8089 22.1301 0 
31.0172 -2.35313 0 
-22.2447 41.5339 0 
39.4822 17.7039 0 
11.8582 -36.3993 0 
-43.3411 -35.5461 0 
-52.308 22.7079 0 
51.4933 13.2251 0 
-15.9578 -4.53478 0 
33.0205 -3.78443 0 
-14.5955 -1.00928 0 
-17.9471 -38.5615 0 
32.0201 -2.76535 0 
18.066 -32.0072 0 
-55.669 9.25659 0 
7.05457 -43.8086 0 
-18.011 12.9423 0 
-29.746 -54.2161 0 
25.7707 42.1311 0 
50.2206 -20.7565 0 
37.622 -42.9133 0 
-33.0553 -30.07 0 
7.50086 -25.6327 0 
-5.37793 -23.7772 0 
40.2575 -5.18327 0 
32.4347 7.95326 0 
7.07554 -0.880359 0 
31.7734 -54.9333 0 
-0.362296 13.1532 0 
14.3991 -60.992 0 
-36.1704 -37.4048 0 
-16.1072 -22.2005 0 
45.9102 -41.4683 0 
-45.0728 -15.9661 0 
9.50513 -55.9186 0 
22.2088 -40.5899 0 
-23.3741 -2.03231 0 
-46.5624 -34.0343 0 
-13.1721 -19.0073 0 
39.1939 -22.6712 0 
-49.4988 -17.9575 0 
34.8411 -6.06367 0 
35.9142 -29.9541 0 
-50.5037 -8.43617 0 
-27.8673 47.6258 0 
-56.4364 4.20406 0 
44.3755 -20.2924 0 
11.9991 24.4135 0 
-5.8665 17.1546 0 
-34.9126 7.43388 0 
3.51816 33.9057 0 
20.3659 41.4534 0 
24.3019 -27.2574 0 
44.8006 23.8684 0 
13.8928 44.4189 0 
55.855 -3.41691 0 
42.2138 13.0092 0 
-28.5658 -2.3233 0 
-23.8854 48.6712 0 
29.8292 -34.8136 0 
23.3871 38.1301 0 
9.20292 20.4733 0 
20.5041 13.1176 0 
-59.9697 -10.4669 0 
8.47683 37.7545 0 
-23.6135 -3.96984 0 
-13.8849 -15.4586 0 
-34.4207 -18.2213 0 
-48.081 38.6642 0 
37.2067 10.3971 0 
23.6796 -7.83422 0 
26.1836 35.153 0 
18.0614 -19.1665 0 
-4.02975 55.145 0 
-18.0865 -26.6553 0 
57.6239 21.4154 0 
-16.0587 57.5672 0 
-36.6331 15.5146 0 
55.0724 13.8729 0 
6.01712 -9.03197 0 
-30.803 41.9502 0 
-14.5114 26.9336 0 
-28.5161 3.72891 0 
25.0419 30.9421 0 
14.8588 -8.66557 0 
-24.8366 -58.2566 0 
-43.3959 -21.5615 0 
-48.4788 23.518 0 
-3.36592 -53.7495 0 
-53.6075 25.2069 0 
48.6826 -29.2933 0 
-38.8124 10.7607 0 
11.5232 30.9589 0 
-36.5223 50.7326 0 
-29.192 -13.3317 0 
51.8035 0.0350309 0 
-56.139 16.0733 0 
-42.3268 14.8626 0 
50.7635 -31.4088 0 
-27.8779 5.63386 0 
31.8199 -19.3952 0 
42.976 38.9719 0 
-20.083 11.038 0 
57.3704 -20.8278 0 
-18.1583 43.5293 0 
47.6225 -26.8431 0 
31.3949 -2.69027 0 
-15.8566 11.7141 0 
-23.1622 48.4586 0 
-13.69 -33.3608 0 
-1.21097 15.6883 0 
26.6116 -26.4646 0 
-14.6378 37.8063 0 
-1.98161 -5.37617 0 
-38.9697 19.3995 0 
23.2856 -58.6423 0 
54.7484 13.6613 0 
48.2113 37.4637 0 
1.16694 50.3812 0 
6.70143 26.7637 0 
-23.7127 -48.8341 0 
-34.3001 29.6597 0 
-4.04685 42.863 0 
40.3752 -1.14251 0 
-5.06887 27.8621 0 
-14.4984 20.1408 0 
-27.9625 4.07347 0 
-8.67704 39.9648 0 
21.7063 -58.6663 0 
12.7799 26.3529 0 
19.3358 -34.0425 0 
14.0455 -52.7839 0 
-4.07555 53.9522 0 
44.0616 -34.3845 0 
41.4071 -44.0191 0 
-54.677 -25.4187 0 
17.087 -2.51804 0 
-31.5445 24.6097 0 
-3.00953 -54.3723 0 
-57.1521 -21.7452 0 
20.9508 -40.8566 0 
-50.3392 -12.9305 0 
-9.14793 6.71427 0 
-25.5117 11.8632 0 
-21.7595 -17.8219 0 
-40.29 -6.14697 0 
-8.84346 -64.1305 0 
-29.9439 53.5814 0 
-40.6486 -1.95856 0 
23.284 -11.786 0 
-33.9405 16.2169 0 
1.9791 13.4716 0 
-5.24521 -22.6795 0 
-9.96528 19.1109 0 
13.0296 51.756 0 
-10.691 -46.7659 0 
17.5589 -21.3685 0 
-37.9332 -18.8305 0 
27.8759 -11.2137 0 
7.27881 -21.1745 0 
37.9437 -40.0757 0 
-30.932 -6.78143 0 
10.5444 -32.293 0 
27.8013 -2.3366 0 
15.3836 -51.9424 0 
-21.9874 -33.7379 0 
-38.3401 -28.0789 0 
-27.4635 16.9438 0 
41.9285 -34.4537 0 
3.22414 -17.2486 0 
47.7837 32.9256 0 
-9.87101 9.23917 0 
0.480006 44.6872 0 
12.6848 -42.393 0 
28.9748 -14.5574 0 
-13.3216 27.904 0 
35.2863 48.111 0 
-25.3263 -39.5761 0 
42.2144 21.33 0 
16.8027 9.52689 0 
-7.6537 -64.2916 0 
55.8527 17.2199 0 
-26.1479 21.4172 0 
-19.8906 -41.3853 0 
-6.26022 -5.0357 0 
10.5915 38.3294 0 
-36.7152 0.310071 0 
-10.9775 42.9398 0 
37.8685 34.0769 0 
0.090559 -47.3313 0 
31.027 36.7063 0 
-56.9571 16.1524 0 
-36.0721 42.1541 0 
-47.9893 39.2391 0 
40.9294 6.25307 0 
-31.603 -13.509 0 
-4.92446 -25.818 0 
-3.26229 17.7248 0 
-53.2044 -25.8152 0 
49.6279 6.84595 0 
43.1645 -8.60982 0 
-10.8831 -27.2025 0 
-1.14517 26.0085 0 
-58.4145 -19.0349 0 
-5.49452 -29.0355 0 
10.2236 45.8646 0 
7.57646 20.7228 0 
54.0031 -13.9969 0 
-7.11586 45.3163 0 
4.01861 42.4218 0 
-47.722 21.1744 0 
8.18388 31.8308 0 
1.64524 13.7509 0 
34.1127 22.5118 0 
21.7299 24.9143 0 
-10.8831 -62.8034 0 
25.86 -51.2517 0 
-43.9376 3.7441 0 
-42.2884 -36.3393 0 
14.935 -4.78462 0 
35.0812 48.1411 0 
-48.8486 -42.0599 0 
-5.48946 -13.3277 0 
-49.3704 23.6432 0 
35.4061 -34.6337 0 
23.7404 -21.7515 0 
29.6442 -6.51297 0 
-3.96514 40.5965 0 
22.7371 1.54081 0 
45.5934 31.7141 0 
-35.0113 34.2083 0 
54.9702 -10.8923 0 
6.55343 -20.9101 0 
-37.3035 40.5673 0 
-24.196 0.191349 0 
16.1019 -10.9739 0 
-30.4982 53.5186 0 
-37.7108 -29.3637 0 
59.8533 8.56502 0 
17.8408 25.3109 0 
17.5406 -18.143 0 
-45.1045 -30.3091 0 
-43.891 27.6607 0 
-40.4881 -5.89327 0 
33.8717 -52.0167 0 
-40.6463 25.6039 0 
-28.5755 -27.376 0 
20.1226 -37.0123 0 
41.1856 6.62053 0 
39.908 28.3567 0 
-17.2697 52.3803 0 
-1.8682 17.0409 0 
-51.641 -6.55954 0 
-8.8487 5.39597 0 
-18.5259 -46.4434 0 
-28.4928 32.476 0 
-12.9556 -33.5605 0 
-14.8963 5.14297 0 
24.3475 -47.946 0 
6.34919 -11.095 0 
-18.7607 32.0161 0 
-39.1132 21.1604 0 
36.5177 -29.984 0 
-43.269 12.7507 0 
-35.8382 41.7138 0 
47.6972 -24.9232 0 
-8.0366 -42.3776 0 
-40.8466 35.7294 0 
-19.023 6.17941 0 
-35.2955 -41.171 0 
-43.3686 -43.6827 0 
-8.52962 33.6867 0 
41.047 26.5 0 
47.2902 16.9235 0 
0.207619 -0.588938 0 
-1.26897 -18.2821 0 
-18.134 -44.0086 0 
-57.2851 -1.47736 0 
18.993 50.1464 0 
2.94822 -17.8547 0 
-32.616 -30.9222 0 
29.5305 -33.5869 0 
0.269939 -31.4963 0 
-10.4205 10.4441 0 
37.7488 46.928 0 
-54.5663 7.56656 0 
-23.8986 23.0756 0 
54.7033 5.51145 0 
-23.4888 -59.2181 0 
-13.9827 -49.8202 0 
-26.0216 14.4664 0 
34.4506 21.5179 0 
51.5105 19.7482 0 
-8.29008 29.5009 0 
-26.3578 32.195 0 
49.0483 -13.7056 0 
-5.23811 3.5044 0 
17.5708 -58.6056 0 
46.4649 -1.05101 0 
15.1261 -7.62732 0 
-33.9237 1.75483 0 
-43.6994 -22.2672 0 
-28.2937 -17.3404 0 
-10.0341 28.6611 0 
39.0788 -38.2374 0 
32.9534 -23.7406 0 
-14.9992 -21.6619 0 
41.7984 -19.4297 0 
-46.6422 15.3756 0 
12.4152 57.9612 0 
-43.9999 0.283732 0 
-15.0413 -60.345 0 
-20.8572 10.8626 0 
-5.45884 -35.63 0 
10.0218 18.9152 0 
6.71939 57.173 0 
31.3486 23.0236 0 
25.6193 16.4663 0 
-58.7486 -2.79697 0 
-32.0821 -45.7569 0 
30.0226 51.8234 0 
-5.80911 0.519221 0 
-0.68642 8.20749 0 
-39.1963 -7.06245 0 
32.9987 -29.0131 0 
29.574 46.2903 0 
17.7934 30.9343 0 
-36.6662 -30.1264 0 
55.5014 -24.1492 0 
38.144 16.3545 0 
-56.2664 -12.9392 0 
-34.4013 -21.6168 0 
54.649 -11.9459 0 
-32.0399 25.488 0 
6.61799 12.8713 0 
15.8579 -25.2377 0 
29.6639 28.046 0 
-37.6088 12.0824 0 
57.2681 12.3942 0 
-18.4591 -0.8776 0 
-51.2271 -7.67626 0 
-37.8883 -35.5849 0 
5.52426 -6.24818 0 
-18.3786 28.1821 0 
36.447 0.632771 0 
-10.4916 -16.4555 0 
43.4838 3.99125 0 
23.3136 -47.8055 0 
38.1171 7.18513 0 
-32.9213 30.0528 0 
-21.6578 -18.4474 0 
-56.7005 -22.2414 0 
-22.8554 -20.9385 0 
-22.8366 47.5421 0 
-42.583 -37.0854 0 
42.3956 -34.5369 0 
41.7976 -5.80761 0 
-19.1003 37.524 0 
2.03713 33.1446 0 
-11.1414 -41.9162 0 
-32.4599 -52.0348 0 
-33.9155 -47.7754 0 
11.6873 -17.696 0 
-11.8437 55.9625 0 
16.5017 8.65034 0 
-41.7271 35.2715 0 
-22.5359 -17.2969 0 
30.1422 37.2037 0 
-20.3178 26.466 0 
-38.0795 11.7702 0 
10.5738 -20.3959 0 
-32.0563 41.0758 0 
-59.6546 -16.8824 0 
14.5265 -52.7559 0 
46.9315 17.4915 0 
-26.0407 -9.50023 0 
6.52282 -44.4561 0 
-33.3671 -51.3223 0 
27.1414 -46.5636 0 
-11.5166 -50.8904 0 
-7.96244 -17.1438 0 
-0.470141 -18.8836 0 
33.3389 -23.0049 0 
-3.2522 60.4362 0 
62.689 -16.1247 0 
11.7422 30.6724 0 
-16.0867 42.9132 0 
11.5913 -17.2396 0 
-8.83147 -5.23247 0 
9.3376 -41.4535 0 
-6.77493 -4.78266 0 
-41.0439 43.8702 0 
23.921 -6.86726 0 
4.35371 -11.6634 0 
-6.65735 -21.889 0 
19.0756 1.70619 0 
30.2263 -35.7831 0 
-3.32013 27.9069 0 
[...]
<CellData Scalars="wall variable 0">
<DataArray type="Float64" Name="wall length" format="ascii">
0.794093 5.97904 1.66736 4.33527 5.17727 0.577293 5.6386 0.908507 5.47461 0.714475 11.1142 2.80809 1.53083 1.76703 5.26075 2.63667 5.57641 2.089 9.8802 1.77769 0.329429 9.47906 1.06037 1.2983 5.54056 3.60117 2.1681 2.49803 3.66021 1.98053 5.63152 4.22498 5.42002 0.705773 2.64959 4.48628 3.33377 0.37724 0.610476 7.11705 6.69524 2.09749 6.77342 4.50432 1.88357 3.44238 1.52096 5.62542 4.82883 4.7285 0.477465 1.19289 5.13552 0.798724 5.10486 9.73461 2.48999 7.87556 0.24347 8.9091 2.43185 4.09917 1.37879 2.27263 2.32074 0.125592 7.10747 3.00856 1.11797 2.48999 1.24885 3.67372 0.656496 4.6109 0.460544 1.70828 1.10616 3.7479 3.95609 1.48615 6.15961 3.60295 0.399081 2.53925 4.79809 0.778335 0.319201 5.88618 3.17869 1.29868 6.11089 2.55766 0.656496 7.58955 0.702608 5.85976 1.41574 2.44462 2.53112 2.24928 1.08682 7.217 2.69847 2.91423 5.84228 4.14775 4.20357 2.4607 1.19311 0.494288 3.60295 4.3935 3.69083 3.48372 2.36978 1.15696 3.63417 4.05652 3.64556 2.77768 0.887897 0.360809 3.24507 3.33489 1.40768 5.90849 0.153984 2.19038 5.1586 1.45101 1.22451 9.2228 1.7636 7.21435 0.840196 3.82021 5.81952 2.88364 3.10009 3.77007 0.83674 1.69668 0.725656 7.13171 5.13552 7.36271 1.84661 4.27286 1.53482 2.26202 2.7598 2.51125 5.89806 7.07832 0.879031 6.20617 0.708131 1.3449 2.13762 9.10916 0.496842 0.635799 4.74511 1.58268 4.05682 7.91375 0.996933 5.81778 0.50515 3.08748 2.24759 7.68748 1.02763 8.52248 0.471229 0.583312 1.9851 6.39786 2.24441 0.863597 1.50745 6.30227 2.8845 3.2321 3.65292 4.16684 1.33082 6.33002 2.06184 1.18956 8.5281 1.29126 8.10858 0.349584 3.73336 0.362299 3.2055 2.21904 1.37677 3.72662 4.6138 0.850094 2.66315 0.520481 2.58163 0.405067 1.58268 0.516643 0.808255 3.73745 1.59462 4.11447 7.89012 0.513322 8.32188 6.27982 2.36978 2.12178 1.05146 0.620563 6.33002 5.68293 5.47131 2.05483 8.97848 0.159007 4.49346 3.36873 0.314839 1.45566 2.55198 6.11089 2.85236 1.0519 7.21305 1.12529 3.08748 4.99273 3.06668 7.2405 3.37833 1.81855 3.10527 4.24506 5.9595 4.85258 1.3449 0.942361 7.92381 4.16583 0.144045 10.8467 1.54475 3.79185 6.9405 2.24441 1.02121 4.88293 4.19706 2.46429 2.71546 2.92269 6.10999 0.93441 5.66818 1.61614 8.78228 3.50802 5.29992 0.637163 1.83545 2.22699 1.71286 5.45576 0.547058 10.637 0.681616 0.838992 0.615892 8.15987 1.53705 5.79639 4.9935 0.775094 5.17565 1.29759 1.85358 5.05139 0.698926 6.67541 4.96173 4.98175 2.50228 6.69524 0.377959 5.16768 4.48385 6.09235 0.189375 1.68556 6.8704 2.07315 3.2321 3.39034 2.76579 8.2013 0.655342 5.66647 4.84837 1.46103 0.179879 4.29127 3.10809 5.50992 3.73818 3.16736 2.53112 1.06841 3.08548 1.19484 1.15586 2.26461 3.80756 2.34431 5.9197 1.5759 6.48206 3.69762 1.82211 4.6886 0.644177 4.62221 4.27538 3.77852 3.31427 0.780271 3.58112 8.23095 0.766811 1.26058 1.26227 6.87448 5.26677 4.33925 2.37196 8.15987 5.20235 6.21719 0.970791 2.05442 3.78426 4.3935 5.88618 2.86502 0.717327 2.65306 0.744556 0.741517 3.1821 6.37849 1.46212 2.83489 8.32188 3.53728 4.38803 2.13001 6.97114 1.24504 1.24783 2.11279 6.77072 1.06368 9.8802 0.310561 1.40768 1.46089 3.67605 3.76608 0.247546 8.91644 0.548876 5.53925 0.705773 4.19967 0.680607 1.86831 4.54136 2.58361 6.047 0.241636 1.95936 3.56492 1.28788 1.48594 0.216215 3.77852 0.444186 0.743613 5.33332 0.785758 2.05442 9.84784 1.08682 8.78928 1.78176 1.85358 0.580777 7.38895 0.823701 5.13206 2.47891 4.20357 5.15048 0.845549 5.11016 1.47784 0.378687 5.05231 4.55264 4.44059 3.22179 3.43859 1.22611 6.58245 1.19311 7.51239 3.53983 4.21478 4.74377 2.5746 1.12456 0.370491 1.3413 4.81905 6.43813 1.78176 1.08185 7.52311 0.370703 5.08919 5.05139 0.825285 7.32199 1.15586 3.34421 7.70429 2.98194 1.82211 1.52496 2.01452 2.56598 6.09689 4.3982 3.94513 5.1777 3.23849 2.91033 0.370703 0.169382 4.21478 1.35331 1.25812 2.35548 2.27251 5.5961 2.32074 5.61509 4.21425 4.72975 1.03911 2.86197 8.06898 0.575737 1.45566 9.95503 0.690948 0.910144 7.79535 1.82259 2.63478 2.11622 2.88328 1.26665 6.87881 4.92702 4.92038 0.548876 4.22498 0.46907 5.90849 0.310561 1.72281 3.01936 1.57256 5.04122 2.5746 3.01826 4.03866 7.13929 4.96742 0.460394 0.496842 2.76502 3.6758 2.42201 4.77653 1.61898 7.02961 0.866871 0.44507 3.30447 1.98053 1.23033 1.2983 0.398634 6.26234 0.591276 5.26677 0.615892 6.40441 2.53224 3.73336 5.1287 7.84031 0.930592 7.70429 2.14131 3.22179 2.73605 3.56259 0.364999 3.86067 5.02934 4.49346 2.19103 2.03246 2.34624 5.93989 2.72326 3.84766 5.96334 0.637163 8.6353 1.39187 9.95503 0.314839 3.65078 0.9516 0.550675 2.29498 3.84329 3.72013 5.85976 2.98194 1.57921 7.30643 2.03972 4.6886 0.714656 6.86022 2.47795 0.279768 0.698926 5.08919 2.91033 2.61834 0.519236 7.13929 0.455818 4.65727 0.635784 4.33527 1.10616 4.71447 1.46062 1.26454 2.01699 6.73973 0.574476 4.40711 0.812521 3.32433 0.378687 1.68841 7.79535 5.47461 6.43645 6.2166 0.527846 6.58245 2.79284 1.55853 3.39838 0.575133 4.16364 4.04278 1.48615 0.619383 5.55428 0.58311 7.6994 3.60117 3.84687 4.39049 7.35576 0.872262 7.2405 1.49007 3.11335 4.65727 1.02878 2.74119 6.45618 2.28587 0.492794 0.78542 5.93932 3.01371 0.897136 2.01699 2.23685 3.11541 1.03195 0.680607 0.852915 6.28705 4.8172 6.1623 0.337228 2.74119 0.78751 1.91694 0.808032 0.60261 2.63667 0.725929 5.29005 2.71796 6.85637 5.17565 4.85956 0.471698 2.72362 5.81952 0.447462 0.681616 2.24176 7.74701 0.778335 1.94399 5.20235 2.07178 2.25119 6.49944 5.33731 4.48628 4.27771 0.812521 4.89495 3.80052 2.32633 0.175805 0.340317 6.74617 0.521991 5.8838 0.885554 0.781301 5.83294 3.79775 3.5755 5.9197 2.13562 3.90402 0.626817 2.14839 1.45101 3.1311 7.99068 1.84449 3.57686 2.6486 1.41574 3.72013 3.62123 3.56259 6.23719 4.92038 1.29871 0.254409 2.25119 2.64959 5.53925 4.84109 5.57641 0.60261 5.89573 3.04722 0.695542 1.08491 2.92725 2.35187 4.43169 1.25916 7.57331 5.55532 1.42725 7.17909 3.81965 2.47714 2.76502 7.91375 0.872684 2.07873 5.9718 0.773439 6.51388 4.3381 0.577431 4.55609 3.51388 1.07598 0.462108 7.33382 1.73742 0.682677 0.144045 6.39786 5.35169 0.987981 6.30503 4.52432 1.85089 5.90241 2.06469 6.92123 5.31567 3.80756 2.58293 1.19289 6.06898 1.23201 4.07076 7.36271 2.08482 6.8364 2.69107 1.07598 2.09032 5.07361 4.16911 5.78012 0.912902 2.04546 3.0398 0.459831 3.19974 6.77072 0.394869 3.48811 7.20359 0.279768 6.60064 0.602358 5.00858 0.774628 3.87481 6.67541 2.07837 3.14504 7.16061 0.48835 2.03246 7.20067 2.13029 0.577431 3.58389 3.76981 0.483789 7.7022 2.7128 4.26543 0.8527 0.632976 0.756867 2.79703 1.42725 5.13982 0.580777 4.96173 3.87481 1.64419 3.04722 0.69812 3.85667 3.24261 5.64334 2.26342 2.47891 0.587724 3.14504 1.61411 1.48071 0.793609 0.945878 1.94981 4.53882 2.01452 5.93078 0.189375 2.49981 2.1063 0.865922 2.27251 2.89668 1.49259 5.16568 1.37784 0.779317 6.3383 2.7649 0.983368 10.6071 3.55182 6.15961 4.04278 0.623433 3.98866 2.46453 0.61804 2.60573 1.11696 6.54163 4.70256 3.65906 1.83545 3.65078 3.36873 5.02934 4.68308 3.9929 6.11885 2.23685 1.26454 3.49542 5.42207 1.98546 2.58361 1.02598 2.30976 3.54178 1.95583 6.01125 0.823701 2.94072 2.51069 6.9405 3.61358 1.25151 4.38803 1.53575 0.863597 0.44507 8.56109 10.0091 0.887897 4.29725 1.73497 5.83777 2.17794 3.24261 2.53449 2.7128 1.38573 9.2228 0.723944 1.52532 7.20359 0.449376 6.82806 0.945878 3.11826 1.59462 7.542 1.3413 8.40945 3.20895 0.495027 1.89144 4.53936 6.90056 6.94809 1.57722 0.872684 4.05682 0.405067 1.10615 0.411416 7.71101 1.24504 2.089 0.817523 8.10858 3.71033 2.56662 7.04959 0.320498 4.83532 0.542459 0.940804 2.6618 6.7666 3.34251 4.09506 1.77769 1.06368 3.19974 1.52532 5.69142 5.19936 1.15696 6.27982 2.83489 1.57414 1.61336 9.85945 4.21425 0.904291 4.6109 2.55766 2.55198 1.18627 0.44949 0.600142 0.780271 6.92699 1.08201 1.7636 2.72362 5.92476 0.856833 4.19967 7.11705 0.505882 0.543319 4.56177 0.852915 3.30447 4.29725 2.77768 0.46907 5.63152 4.74511 6.90877 2.22783 3.72662 1.88357 6.28524 0.51704 3.81965 0.612243 2.72326 2.38919 0.377959 2.52065 6.8704 1.44018 2.88364 1.48043 4.46223 1.25713 5.98426 3.60082 1.22522 6.48206 3.34474 6.52403 0.376663 0.93441 3.44937 2.13001 1.25151 0.687654 8.11353 0.449376 3.48811 9.59438 4.25819 0.717327 3.61952 4.98175 0.961689 5.55497 0.569758 4.86056 4.3982 4.2422 3.34474 1.95583 6.60774 2.22699 3.65906 3.86067 0.48835 0.620954 0.501932 7.41434 4.13887 8.50668 1.32724 1.62438 3.97207 6.96518 3.77007 1.41181 2.09034 4.29127 3.12179 5.32987 4.64542 0.773439 5.65795 1.16996 2.08482 0.745955 2.5953 3.6758 2.06469 7.78316 0.825285 0.930592 0.714739 0.860674 6.43438 0.879031 0.961442 0.723214 6.43645 0.908507 3.21828 0.885369 8.52248 1.89971 3.95352 2.87384 2.49803 1.33899 0.478502 8.24942 0.329429 5.19936 0.521414 4.68308 1.46062 2.66253 3.49542 1.04052 0.521414 5.69142 0.723944 1.22451 2.14839 1.41502 2.81505 3.9929 0.69812 5.89573 0.808032 4.14546 0.550675 7.97518 2.13169 7.68748 3.12873 2.89442 5.73393 2.66253 4.71447 1.70828 2.66648 5.42207 2.01581 4.16583 1.50669 1.20656 2.07873 1.57722 0.812511 4.19706 1.18627 7.21305 4.20365 2.29296 6.73544 3.48805 1.25713 1.5759 2.03972 0.225671 3.12619 1.00011 7.53547 2.63478 5.6302 1.81855 1.53806 5.3466 0.132156 7.89012 3.12888 1.97448 2.06004 5.8214 3.25435 0.557454 3.97491 2.68355 6.09545 4.33925 0.591276 1.69752 1.50229 3.22261 1.95936 3.75266 2.34321 1.36775 8.24942 4.08729 4.20357 3.39191 0.179833 4.69085 1.95497 2.51069 2.58693 7.57112 1.05559 8.2013 0.316452 2.38719 0.885554 0.795714 8.9091 4.73356 1.28439 1.12456 5.04122 0.519236 4.50461 1.02598 1.48594 4.37595 5.1287 0.349584 0.817523 1.06037 10.1394 5.00617 0.459142 3.58112 3.88444 8.06898 2.89668 2.35548 0.35075 3.1311 1.96768 0.735183 5.40194 0.786612 7.88107 1.10446 2.39764 4.12141 6.37849 4.50432 0.734686 0.547058 1.17346 4.55667 6.28524 1.9454 3.39034 2.8845 2.6672 2.46429 0.812511 6.94809 3.11541 6.11885 2.81505 10.9085 2.38769 1.00364 0.786612 3.1821 4.61412 0.340317 5.71753 3.94099 1.37677 5.74017 0.644177 0.856833 7.53261 0.620954 7.16061 0.587724 5.13206 6.01125 3.64556 6.23182 0.439107 1.46246 5.79639 2.17267 1.8783 6.09545 2.31291 0.912902 0.592852 5.55497 2.28587 3.00966 0.516643 0.132156 4.98605 4.10026 5.77782 1.49259 5.40194 4.54339 2.09034 3.76114 4.74377 5.5961 0.865922 7.84314 0.399081 0.494288 1.08491 1.08723 2.56598 4.53882 0.999055 1.65383 6.34469 0.370491 1.28439 2.52711 1.71168 0.577293 0.824813 3.28451 0.817845 8.40945 3.59658 2.28648 4.35267 3.3646 0.756867 6.63725 5.28443 2.32515 7.20067 2.19103 0.159007 0.644248 3.12179 0.179879 1.76389 7.14493 1.69047 5.83294 5.66508 0.78542 3.74608 0.420936 5.90966 0.543319 8.0328 0.293157 7.07832 1.34874 2.29566 2.13562 2.34431 5.31567 0.520481 3.1905 1.1846 5.66508 0.781301 2.38719 9.05632 6.20617 6.43438 4.29127 9.21322 1.63863 5.35169 1.9851 3.02061 5.97904 0.901441 10.2499 1.48071 5.45345 3.60082 1.11517 1.07427 2.54144 2.47605 5.32987 0.644248 8.97848 5.9718 1.20656 4.70628 5.65795 3.26584 5.9595 2.12188 1.11912 0.840196 4.35634 1.69668 2.04546 2.31291 2.68355 2.84458 0.462108 1.63863 0.794093 5.64654 1.46246 0.954585 6.30503 0.271983 5.09079 4.9935 0.494014 2.16578 1.89637 2.26159 1.63946 1.12718 7.04287 1.09865 0.956133 8.89601 0.406684 2.47987 0.483789 1.14849 5.29005 5.407 4.76489 1.74002 1.26665 4.54136 0.179833 1.06278 7.53547 3.01976 2.35208 4.7285 1.58171 0.40265 1.29871 4.92702 2.10105 2.51125 0.448472 1.02121 10.3484 3.67831 6.62125 0.950307 0.714739 0.364999 3.62123 3.84329 0.620563 0.704154 9.59438 0.394869 2.11279 7.25718 0.320125 2.06184 2.65264 1.24885 2.43185 0.795714 5.8838 3.5669 1.37744 5.04852 0.212183 0.58311 5.99445 4.75173 2.44442 0.320498 0.415991 2.18051 1.53806 3.37833 3.26584 0.83674 6.96518 3.1247 0.309306 5.23146 2.88082 6.52403 0.824813 11.1142 0.936192 3.76949 7.82716 1.17082 4.81485 4.50461 2.61834 1.66736 3.02061 0.583312 3.54378 1.15664 7.23651 1.69752 6.26234 2.01288 7.10747 1.05925 2.2877 1.50571 4.8172 7.46861 6.74617 4.61412 0.741517 0.513322 0.420936 8.36765 0.645503 2.18758 2.52635 0.31008 4.09506 0.530505 3.57686 0.736637 2.91423 3.04922 6.73219 1.13356 6.97114 3.44937 6.10999 1.37878 3.47875 1.85089 4.68309 5.09701 0.569758 2.84198 0.501932 0.125592 4.72975 0.600142 6.66904 8.3585 1.05925 0.725929 5.26075 0.457538 3.93061 1.71285 2.80005 5.89952 0.956133 2.00508 6.31743 0.526077 2.28648 1.55844 6.15785 1.73742 2.83955 5.68446 0.619383 3.95609 0.503347 1.63453 2.6618 0.31008 2.49981 6.09235 3.93679 2.22642 8.95389 0.708131 9.21322 1.26989 6.51388 2.69107 0.305045 0.942361 1.72281 8.91644 2.24447 0.310219 7.217 1.84057 2.92725 6.34469 5.03253 2.29296 1.20928 2.94072 5.15048 1.22996 1.97448 1.98834 0.901441 1.12479 2.58693 5.71523 1.18956 0.320125 7.38527 0.411416 4.96327 2.84198 3.34474 3.36388 0.719948 1.99775 7.41434 3.0398 5.64654 5.17727 0.635784 3.11335 0.367214 2.79284 1.22611 3.48733 2.24202 2.19038 7.97553 0.785758 5.84818 6.40441 0.838992 2.07178 3.78426 0.542459 7.01105 1.62438 4.54339 0.735183 5.07991 2.05483 0.575737 3.88444 6.87448 7.52479 1.07427 2.47795 1.71334 2.19135 5.30909 6.60064 2.2877 8.3585 1.14149 0.999055 1.94981 6.82806 0.785917 0.968582 0.8527 5.80519 5.28443 1.46103 6.43968 0.35075 1.25812 1.80236 4.39049 0.79248 2.94574 7.99068 2.4607 4.08729 0.478502 3.38169 7.51239 0.704154 5.47131 3.79873 3.39838 2.18192 0.687654 4.83532 2.44442 3.97207 7.01105 4.14546 6.85637 0.986525 3.67831 2.29498 3.23849 5.75406 2.40003 6.54163 1.13321 4.00686 0.714656 0.517605 4.98605 5.8214 6.1426 1.63453 6.5303 3.01371 0.458779 6.7666 0.757938 5.45576 3.09823 4.69085 1.58171 4.82883 2.79703 3.3646 4.05713 3.84766 0.612243 7.17909 1.98834 3.12888 4.11447 3.11826 0.793609 10.2499 0.37724 9.75121 0.994162 4.09917 2.01288 1.91694 3.16426 4.27286 0.950598 2.09032 3.51388 4.99629 0.559063 7.58955 3.67372 2.65264 6.26797 2.47002 5.45345 5.93078 1.52496 3.69762 1.22522 3.74608 0.492794 5.77782 1.00979 8.36765 3.54178 1.95497 3.09823 1.71286 6.60774 2.25485 1.02382 1.97035 1.61336 1.19554 5.75406 5.1777 0.682677 6.15785 4.8731 10.8467 5.53287 6.58757 3.1905 2.66315 0.784273 4.55264 5.7525 2.12178 3.48372 5.71927 5.67212 2.11622 5.3466 2.18051 1.82259 1.68841 1.47784 2.12899 3.10527 5.6302 6.26797 3.5669 0.521991 4.68415 1.33165 0.857804 6.73544 5.03253 1.65383 1.14149 6.66904 0.44949 4.52432 0.954585 0.439107 3.93818 2.23572 1.02382 1.64354 4.68309 1.68556 5.16568 3.76114 1.41181 3.10009 1.44018 2.54144 7.52479 1.26227 1.21805 5.23146 4.17876 2.01379 4.70256 2.40003 1.19554 1.57414 1.46212 4.12141 2.27263 5.03536 3.00856 0.904291 5.61509 3.86892 3.45842 3.51209 2.56662 4.69416 0.986525 2.71796 1.14849 3.76981 2.90921 6.62125 6.39015 2.71546 2.6672 6.30227 1.84057 5.84228 0.736637 1.84449 2.94574 1.69837 3.01936 1.09934 3.21333 5.82563 0.653542 0.579155 9.08616 3.10809 4.64542 2.47605 4.17876 0.309306 2.44935 2.17794 3.42799 0.645503 1.00979 4.10026 0.517605 1.34589 5.64334 3.48733 3.43859 2.14131 3.34421 1.19484 5.89625 1.94399 4.79809 2.15238 2.22642 1.35346 6.21719 1.69732 7.53261 5.92476 0.471698 4.16961 1.26989 4.29127 0.860674 0.950307 2.90921 3.58389 4.3381 4.70628 1.50669 7.92381 0.305045 6.8364 1.16996 0.885369 8.88323 2.52711 4.73356 4.81485 0.471229 0.494014 8.80091 1.02878 0.455818 4.03866 5.37319 2.7649 6.53612 3.20021 4.01044 3.76949 0.742864 4.57496 9.08616 0.570089 5.73393 7.82716 4.01044 1.25894 8.1899 6.1291 4.75173 2.2981 2.83955 2.52635 5.93932 8.0328 0.505882 0.610476 3.16426 0.78751 0.254409 0.40265 1.15016 3.65292 2.07315 1.05559 0.24347 1.07898 1.86301 6.49944 1.98546 2.66648 0.460544 3.55182 2.16919 6.047 2.30976 10.1394 9.47906 1.04052 0.835217 2.09749 2.50228 3.61952 2.86502 0.319201 7.74701 2.73027 7.7022 2.47987 1.49557 5.10486 2.24928 3.16736 3.76702 1.87901 1.08185 8.78928 2.34321 5.43042 2.92774 1.17346 1.53705 2.37196 7.38527 7.25718 1.24783 7.71101 4.41656 3.90402 2.29566 1.61423 4.76489 3.66021 2.87384 2.41927 5.81778 3.90085 1.61898 0.785917 7.542 3.73745 3.02674 5.8809 3.63417 9.85945 1.97035 2.23572 3.66669 5.53374 0.557454 0.593115 2.34624 4.51161 6.31743 1.15016 10.3484 2.92269 6.39015 1.50745 3.01826 6.43813 0.758115 2.16578 5.37319 1.53482 4.99629 4.55609 2.13029 2.73027 0.798724 0.28892 7.84031 4.37595 1.28788 5.68144 4.62468 2.92063 2.65306 4.25819 0.592852 5.78012 0.662121 4.16364 2.67851 4.13887 1.99775 4.82376 5.50992 0.714475 6.2166 0.723214 1.02763 1.53575 3.53728 1.13356 0.800273 0.983368 0.742864 0.936192 3.90085 0.996933 2.13169 0.570089 0.579155 1.68222 7.02961 4.51161 5.96334 4.05713 4.35267 0.526077 5.29992 2.65567 4.23482 8.6353 1.7058 8.5281 5.71523 4.4924 2.17498 0.271983 0.987981 1.50571 0.968582 5.8809 3.0352 6.1623 2.2981 5.99445 5.55428 5.68446 1.61423 1.34874 5.89806 2.10105 6.87881 1.74002 0.575133 3.79873 5.68293 1.33082 2.58891 8.50668 2.67851 1.09865 1.96076 3.12873 2.24759 1.12529 0.872262 8.80091 3.33377 5.33731 1.86301 2.15572 9.75121 2.1681 7.35576 1.80236 1.35331 3.53983 3.38169 1.33899 1.23201 3.24027 3.99423 2.42201 2.5953 7.00068 0.961442 9.10916 1.5289 2.26202 0.293157 6.92123 1.84661 4.07076 7.00068 0.745955 5.07361 0.950598 0.743613 9.85522 0.362299 2.53224 0.28892 1.20056 1.15664 5.51772 3.79185 1.20934 0.655342 2.44935 3.1247 3.34474 3.61358 0.336595 9.84784 0.970791 1.35346 3.93679 4.48385 2.52065 4.82376 0.719948 3.22246 3.76702 3.73818 0.775094 5.09079 2.17498 1.43403 4.16961 4.85956 0.961689 5.16768 2.38919 5.93989 0.593115 3.25435 1.8783 4.01425 3.39191 4.14775 0.744556 2.92063 4.16911 3.34251 0.458779 6.28705 4.56177 5.90966 0.530505 4.84837 1.72671 6.63725 0.632976 6.43968 2.84458 3.97491 5.53374 2.00508 7.33382 1.11912 5.8021 0.845549 0.784273 3.69083 2.17267 1.29759 0.447462 3.82021 0.882163 9.73461 1.49557 0.406684 0.551122 4.12257 4.2455 3.12634 1.03195 10.9085 1.41502 0.626817 4.41656 5.407 1.86831 4.00686 5.82681 0.885977 1.71334 6.86022 5.68144 3.56492 3.22261 5.53838 1.26058 6.45846 3.44665 5.66818 0.376663 2.88082 1.21805 1.7058 5.90241 3.47875 1.32724 2.58891 4.16684 4.99273 0.50515 2.41927 3.95352 4.6105 4.53936 8.30434 1.52859 1.89637 0.758115 4.81905 3.7479 6.73973 0.897136 6.5303 0.503347 1.55853 7.97553 0.153984 1.38573 8.11353 2.18192 1.96076 7.04287 1.19426 1.09934 4.57496 2.89442 3.06668 4.6105 1.89971 1.36775 4.01425 0.459831 0.367214 1.49007 0.91007 1.73497 5.13982 5.55532 0.279267 5.04852 0.734686 6.77342 0.835217 2.24176 10.637 1.57921 6.09689 1.08723 0.695542 6.04637 3.03894 1.20934 1.54475 4.8731 1.55844 3.59658 1.72671 5.66647 2.58163 9.05632 0.316452 2.76579 1.9454 6.90056 5.33332 5.51772 3.54378 0.398634 5.84818 1.11797 5.03536 1.37879 0.994162 2.15572 1.07898 7.87556 3.31427 0.216215 0.336595 4.46223 4.73705 0.319969 6.92699 1.06278 7.57112 1.12479 1.11517 5.98426 3.48805 2.6486 6.73219 0.705769 0.940804 5.07991 1.96768 2.24202 5.89625 3.08548 3.5755 5.1586 1.05146 5.7525 5.05231 3.32433 4.27771 7.46861 0.91007 1.37744 6.1291 2.18758 3.42799 5.83777 1.85941 10.6071 0.800273 1.37878 8.78228 5.74017 2.21904 4.55665 4.62221 4.26543 2.53449 1.61411 2.07837 2.32515 5.80519 1.87901 3.22246 3.36388 4.2422 0.169382 7.52311 3.51209 0.928259 1.04521 3.7818 5.71927 0.415991 7.04959 2.12188 4.24506 2.12899 5.11016 5.8021 1.23033 5.42002 1.57256 1.69837 0.79248 3.84687 5.54056 4.62468 5.53838 1.50229 7.23651 1.20056 0.337228 3.0352 3.02674 0.808255 3.00966 6.45618 4.4924 4.96327 1.10615 1.29126 3.94099 1.69732 1.43403 0.623433 7.6994 0.212183 0.279267 2.47714 0.51704 4.55667 2.92774 0.722829 0.448472 2.7598 1.5289 2.13762 4.85258 2.01581 4.88293 2.58293 2.26461 7.32199 7.78316 2.44462 6.23719 2.73605 4.44059 0.527846 0.662121 1.06841 1.0519 5.0568 0.89787 2.85858 2.35187 1.20928 4.20365 2.81915 4.69416 3.71033 0.705769 3.04922 2.69847 0.310219 1.48043 7.13171 6.35621 4.73705 0.444186 4.27538 4.55665 3.2055 9.85522 4.05652 3.66669 3.93818 6.23182 5.09701 1.64354 2.25485 3.94513 4.86056 2.1063 8.95389 2.15238 2.53925 7.84314 3.21828 5.6386 1.71168 8.88323 5.89952 4.37926 0.551122 8.89601 1.08201 0.319969 6.35621 0.725656 4.35634 7.21435 3.85667 7.97518 0.9516 0.702608 7.38895 1.34589 6.1426 2.06004 1.22996 4.20357 2.26342 3.75266 0.241636 2.16919 3.98866 0.722829 5.43042 
</DataArray>
<DataArray type="Float64" Name="wall variable 0" format="ascii">