<VTKFile type="UnstructuredGrid" version="0.1">
<UnstructuredGrid>
<Piece  NumberOfPoints="    2436" NumberOfCells="     407">
<Points>
<DataArray type="Float64" NumberOfComponents="3" format="ascii">
30.6722 -28.6195 0.0
30.0266 -29.3525 0.0
34.6587 -33.2099 0.0
36.2273 -31.8604 0.0
36.1485 -26.636 0.0
40.7936 -45.091 0.0
40.8299 -44.4399 0.0
34.3406 -43.9041 0.0
33.4756 -44.6148 0.0
30.6782 -49.9202 0.0
30.5654 -50.7083 0.0
26.3718 -19.5195 0.0
26.2124 -16.1588 0.0
20.2087 -18.3955 0.0
19.7329 -19.9047 0.0
20.3598 -20.8765 0.0
-0.0632111 14.9548 0.0
-1.86062 16.749 0.0
-10.1181 10.6491 0.0
-9.7975 8.35141 0.0
-9.50714 8.0245 0.0
-1.01508 14.1111 0.0
52.3455 -8.38935 0.0
53.4767 -7.23373 0.0
51.3414 -1.92676 0.0
48.1732 -4.26886 0.0
46.6151 -6.29807 0.0
48.0191 -9.13575 0.0
55.6691 -6.58047 0.0
57.5641 -7.85274 0.0
60.7351 -3.48679 0.0
57.3801 -0.52738 0.0
-31.634 -3.00737 0.0
-32.364 -2.57876 0.0
-35.4132 -2.36512 0.0
-34.2917 -7.24699 0.0
-31.283 -10.0382 0.0
-30.8427 -10.2926 0.0
-29.9952 -10.069 0.0
12.6726 -18.5338 0.0
14.2408 -16.2747 0.0
11.742 -11.7758 0.0
8.52904 -12.7632 0.0
10.8344 -17.2488 0.0
9.75402 56.2442 0.0
15.5403 54.9543 0.0
14.2807 57.3452 0.0
10.6585 61.0448 0.0
16.14 -35.5462 0.0
12.4953 -35.3788 0.0
11.9455 -35.7668 0.0
11.6914 -38.5653 0.0
13.1097 -39.8505 0.0
16.046 -39.7757 0.0
-54.315 -12.5315 0.0
-51.3006 -12.9507 0.0
-45.3891 -7.24461 0.0
-45.6102 -6.98168 0.0
-51.7767 -8.55977 0.0
-55.2277 -9.46983 0.0
-38.0215 -14.5454 0.0
-42.3601 -12.5967 0.0
-43.5169 -13.9856 0.0
-43.4734 -16.7457 0.0
-42.8988 -19.5291 0.0
-42.7571 -19.5985 0.0
-50.225 -17.646 0.0
-50.4086 -14.3452 0.0
-51.4807 -13.5527 0.0
-54.4952 -13.1334 0.0
-55.1829 -14.5925 0.0
-54.6622 -18.8314 0.0
-54.3141 -19.5052 0.0
-6.98047 -5.95753 0.0
-7.49099 -5.64985 0.0
-9.59018 -6.07422 0.0
-10.1863 -7.27373 0.0
-11.099 -11.6178 0.0
-6.66298 -13.4323 0.0
-5.46717 -12.2253 0.0
32.2635 -6.98627 0.0
34.3285 -3.27356 0.0
33.9559 -2.90935 0.0
30.7047 -2.69388 0.0
26.6833 -7.10779 0.0
26.5001 -8.13919 0.0
26.6059 -8.54376 0.0
-13.328 -30.7179 0.0
-14.463 -30.9745 0.0
-18.2738 -31.8757 0.0
-17.7107 -34.6713 0.0
-15.2572 -36.7118 0.0
-15.0396 -36.7454 0.0
-18.9182 47.862 0.0
-19.8638 47.7571 0.0
-20.8032 42.0592 0.0
-19.2824 41.7316 0.0
-16.4345 42.0665 0.0
-15.9641 45.26 0.0
-17.6875 47.3076 0.0
59.9753 6.77669 0.0
59.9423 14.4089 0.0
56.8934 14.0973 0.0
55.8243 10.7411 0.0
37.4306 -5.6869 0.0
36.4765 -4.3237 0.0
35.399 -3.3918 0.0
34.7355 -3.36179 0.0
32.6705 -7.0745 0.0
31.758 -10.326 0.0
31.7347 40.9859 0.0
32.8043 41.4406 0.0
31.1942 45.5385 0.0
28.3613 46.4555 0.0
27.0529 46.4295 0.0
25.2084 45.8557 0.0
48.6449 25.3399 0.0
48.9124 25.4706 0.0
49.0468 25.8871 0.0
48.9712 26.4452 0.0
47.1497 28.678 0.0
45.21 29.2463 0.0
41.4895 27.6424 0.0
40.5555 26.6934 0.0
-13.4517 21.8515 0.0
-13.5913 21.9657 0.0
-16.1317 21.9684 0.0
-19.0404 17.6303 0.0
-19.6733 16.7013 0.0
-19.5647 14.6604 0.0
-18.07 14.088 0.0
24.5283 27.8022 0.0
26.1113 26.2727 0.0
32.2076 30.8219 0.0
32.1593 31.8856 0.0
27.5657 33.7424 0.0
36.2776 18.2191 0.0
37.6203 18.9266 0.0
38.0149 23.619 0.0
37.5831 24.6036 0.0
35.4401 25.3759 0.0
34.6694 24.9574 0.0
33.8761 23.3653 0.0
40.8484 -31.3569 0.0
43.1628 -25.6272 0.0
43.0504 -25.0872 0.0
38.245 -25.5456 0.0
-37.0981 17.4827 0.0
-37.8073 17.3087 0.0
-36.8982 11.2378 0.0
-32.4796 11.6607 0.0
-35.4313 26.5096 0.0
-35.834 27.4028 0.0
-42.1556 24.0443 0.0
-42.8821 23.4549 0.0
-42.7387 21.5896 0.0
-41.0902 19.5469 0.0
-47.1425 24.566 0.0
-44.8871 24.8382 0.0
-45.0872 28.3625 0.0
-45.8801 29.4591 0.0
-48.3364 30.3426 0.0
-49.8797 28.8894 0.0
54.5791 -16.084 0.0
53.5786 -15.4734 0.0
47.1064 -16.8662 0.0
46.7868 -17.4803 0.0
46.6591 -21.2982 0.0
49.3155 -21.9574 0.0
24.7495 -44.6709 0.0
28.4099 -41.7243 0.0
24.9082 -39.7465 0.0
22.3794 -40.979 0.0
22.6911 -43.9935 0.0
23.4193 -44.9193 0.0
-41.2182 0.551772 0.0
-42.2466 1.88561 0.0
-48.0147 3.85768 0.0
-48.3532 0.50731 0.0
-45.1056 -1.85087 0.0
6.04755 35.9411 0.0
3.45443 37.1369 0.0
1.95344 36.3544 0.0
-2.99864 31.1107 0.0
-2.15884 30.5971 0.0
8.23937 22.2941 0.0
7.68831 21.5964 0.0
6.90532 14.6459 0.0
7.53724 14.4859 0.0
7.91817 14.7684 0.0
10.3722 17.8408 0.0
10.8701 20.5077 0.0
9.94801 22.0688 0.0
8.23848 34.897 0.0
6.19745 35.7765 0.0
-2.00894 30.4325 0.0
-0.617954 29.4254 0.0
0.77991 29.8755 0.0
6.92115 33.9423 0.0
-26.7074 -27.7803 0.0
-27.1965 -27.2397 0.0
-28.2857 -27.1029 0.0
-31.4544 -30.2039 0.0
-32.1587 -31.9928 0.0
-28.7669 -35.2396 0.0
32.6672 49.2804 0.0
32.306 49.8783 0.0
23.666 51.6815 0.0
28.3127 46.9274 0.0
31.1457 46.0104 0.0
32.712 47.9647 0.0
-4.26803 31.1582 0.0
-3.38966 31.1317 0.0
1.56243 36.3754 0.0
-4.47081 36.4383 0.0
-3.7124 -58.6025 0.0
-1.63814 -57.2062 0.0
-5.58028 -49.005 0.0
-5.79659 -49.0205 0.0
-6.49127 -54.0851 0.0
-5.98566 -57.9093 0.0
-5.59832 -58.0951 0.0
-20.5434 24.2972 0.0
-21.2182 24.2042 0.0
-23.5168 23.854 0.0
-22.8396 20.1865 0.0
-20.4354 17.2588 0.0
-20.1133 16.9798 0.0
-19.4804 17.9089 0.0
44.8366 -22.4431 0.0
45.9891 -21.4785 0.0
46.1168 -17.6606 0.0
40.931 -19.3707 0.0
37.8697 -20.8029 0.0
41.0786 28.0511 0.0
44.7991 29.6549 0.0
43.8225 31.5588 0.0
41.5874 34.4614 0.0
37.2136 32.6954 0.0
39.1149 30.4084 0.0
-46.8333 16.7873 0.0
-43.4242 21.217 0.0
-43.5675 23.0822 0.0
-44.6421 23.7113 0.0
-50.829 17.4068 0.0
21.5864 -41.2021 0.0
21.4281 -41.0775 0.0
11.3337 -45.5261 0.0
10.2706 -46.9912 0.0
14.5296 -46.8184 0.0
21.8981 -44.2167 0.0
-43.1457 11.4966 0.0
-42.5213 12.599 0.0
-47.4539 13.7251 0.0
-50.7272 10.1372 0.0
-48.4605 8.06218 0.0
-45.4551 8.94783 0.0
7.16865 33.7796 0.0
1.02742 29.7127 0.0
7.29983 29.3319 0.0
8.40695 29.7901 0.0
-14.4809 -60.3064 0.0
-11.9672 -58.4991 0.0
-11.5478 -57.9291 0.0
-12.974 -56.132 0.0
-15.4045 -55.0741 0.0
-17.3674 -54.6556 0.0
-17.5528 -55.0838 0.0
6.96839 -11.4738 0.0
7.64915 -11.6746 0.0
15.8693 -5.60247 0.0
15.8497 -4.70054 0.0
14.8546 -4.1983 0.0
14.0913 -4.26047 0.0
7.25486 -9.54321 0.0
26.5317 36.5336 0.0
20.3334 39.4532 0.0
19.9169 34.4119 0.0
20.7296 33.9881 0.0
26.6604 34.8459 0.0
-12.4363 56.1318 0.0
-10.0561 55.8179 0.0
-5.62496 59.0044 0.0
-5.07878 59.3497 0.0
-5.18861 60.1781 0.0
-12.3453 60.9942 0.0
19.1357 -19.7044 0.0
19.6114 -18.1952 0.0
20.4871 -14.2022 0.0
17.7615 -12.7502 0.0
14.8209 -16.4514 0.0
13.2527 -18.7105 0.0
13.3918 -19.1707 0.0
18.4223 -19.6971 0.0
26.4487 12.1643 0.0
28.436 7.61101 0.0
30.5371 8.9489 0.0
33.8828 11.5516 0.0
33.9123 11.8015 0.0
33.3268 13.8724 0.0
-45.8409 -4.85168 0.0
-45.5451 -2.19576 0.0
-48.7926 0.162419 0.0
-49.9736 -0.0356614 0.0
-52.779 -0.619498 0.0
-54.4629 -3.63561 0.0
-51.5645 -4.06978 0.0
6.97247 -48.5418 0.0
7.53143 -47.8537 0.0
5.37232 -42.236 0.0
0.0757385 -43.2162 0.0
-1.07665 -44.6369 0.0
-1.0978 -44.8843 0.0
3.25033 -47.666 0.0
-15.1246 40.8623 0.0
-10.0977 44.2351 0.0
-12.176 47.0335 0.0
-15.4602 45.2149 0.0
-15.9306 42.0214 0.0
-26.2773 25.2583 0.0
-28.1836 23.9024 0.0
-25.2431 19.0036 0.0
-23.246 20.3236 0.0
-23.9232 23.9911 0.0
-24.8277 25.1906 0.0
-35.2344 -49.4627 0.0
-33.4324 -49.605 0.0
-34.2914 -43.2636 0.0
-38.4226 -43.297 0.0
-38.6033 -45.3982 0.0
19.2008 18.8808 0.0
18.4184 18.7624 0.0
15.6621 15.133 0.0
18.6142 11.6327 0.0
20.4537 12.8742 0.0
22.3283 14.5091 0.0
20.0905 18.3097 0.0
29.8553 0.676628 0.0
30.3397 -0.163573 0.0
36.903 5.04028 0.0
37.5825 6.53629 0.0
35.6079 8.11589 0.0
31.9291 3.51627 0.0
13.8903 -4.0162 0.0
8.32413 -2.05098 0.0
6.35803 -6.58085 0.0
7.0538 -9.29894 0.0
19.253 -2.57849 0.0
21.5655 -3.64755 0.0
24.4407 -4.95228 0.0
24.824 1.55552 0.0
23.6756 2.04118 0.0
22.2466 1.91136 0.0
21.1149 1.74309 0.0
30.7883 -12.1766 0.0
31.1913 -10.7465 0.0
32.1038 -7.495 0.0
26.4462 -9.0525 0.0
26.3589 -9.91986 0.0
26.1296 -12.7234 0.0
26.8489 -13.3883 0.0
30.1103 -12.8261 0.0
32.0204 50.2749 0.0
31.7165 51.1287 0.0
29.0248 53.9061 0.0
21.6141 55.1487 0.0
20.4332 53.8555 0.0
23.3804 52.0781 0.0
24.4317 -51.4984 0.0
22.4537 -47.7761 0.0
17.9387 -50.6227 0.0
17.9894 -52.8722 0.0
-1.95822 17.0735 0.0
-2.46107 18.5092 0.0
-3.81971 19.315 0.0
-6.5025 18.8897 0.0
-10.7956 12.1821 0.0
-10.2157 10.9737 0.0
34.1656 11.228 0.0
30.8199 8.62527 0.0
31.8302 3.8807 0.0
35.5091 8.48032 0.0
-30.9314 3.98151 0.0
-31.4278 3.55494 0.0
-32.0482 -1.99711 0.0
-31.3183 -2.42571 0.0
-26.575 -2.79083 0.0
-26.2128 -1.88565 0.0
-27.089 0.39057 0.0
-5.25931 3.55363 0.0
-5.75632 0.526333 0.0
-0.871993 -2.99448 0.0
-0.631832 -2.8161 0.0
0.0661105 -0.491119 0.0
-2.06185 3.11605 0.0
-3.38791 3.91234 0.0
22.6666 13.8249 0.0
20.792 12.19 0.0
22.2345 2.87324 0.0
23.6636 3.00306 0.0
23.0389 12.6546 0.0
22.9657 13.7374 0.0
-18.4574 48.6307 0.0
-17.2267 48.0763 0.0
-9.60642 53.259 0.0
-10.4841 55.1732 0.0
-12.8643 55.4871 0.0
-13.6079 55.3191 0.0
-19.7152 -42.1251 0.0
-18.821 -41.8373 0.0
-15.57 -37.2082 0.0
-18.0235 -35.1677 0.0
-22.2589 -37.4054 0.0
34.6934 40.539 0.0
35.5069 39.7918 0.0
41.4502 37.9269 0.0
42.9486 39.0247 0.0
42.9362 39.4876 0.0
38.4226 42.8508 0.0
-15.8413 38.3264 0.0
-20.3308 35.2224 0.0
-20.0886 31.4609 0.0
-18.9533 31.0881 0.0
-16.315 30.2356 0.0
-15.103 31.2359 0.0
36.0248 -2.83243 0.0
37.1022 -3.76433 0.0
43.9378 -1.33483 0.0
44.3641 2.82828 0.0
40.1937 0.757733 0.0
46.2697 -33.5664 0.0
45.7631 -36.3755 0.0
46.1759 -37.6959 0.0
46.6407 -37.6637 0.0
48.1597 -37.1794 0.0
52.1458 -33.2991 0.0
-7.86253 52.791 0.0
-4.89381 53.6717 0.0
-5.37145 58.6716 0.0
-9.80262 55.485 0.0
-8.92492 53.5708 0.0
-28.7258 34.7557 0.0
-28.6912 33.7617 0.0
-26.328 25.9911 0.0
-24.8785 25.9233 0.0
-22.9464 29.4607 0.0
-42.1566 -45.6983 0.0
-39.1842 -45.0609 0.0
-39.0035 -42.9597 0.0
-40.0363 -41.3619 0.0
-41.7901 -39.6149 0.0
-44.716 -40.3213 0.0
1.81875 54.7748 0.0
6.36886 52.4897 0.0
10.6562 51.2218 0.0
8.5094 55.9685 0.0
4.84251 57.4077 0.0
1.74388 55.4591 0.0
1.70676 54.9719 0.0
40.3358 1.3214 0.0
44.5063 3.39195 0.0
45.3896 4.96536 0.0
45.0135 6.69267 0.0
42.1158 7.70242 0.0
39.4793 6.72261 0.0
-43.3734 -19.9614 0.0
-43.9481 -17.178 0.0
-49.0404 -18.881 0.0
-47.8154 -23.3972 0.0
8.42839 -39.2638 0.0
11.1824 -38.4404 0.0
11.4364 -35.6419 0.0
[...]
<CellData Scalars="cell variable 4" Vectors="cell vector">
<DataArray type="Float64" NumberOfComponents="3" Name="cell vector" format="ascii">
0 0 0
0 0 0
0 0 0
0 0 0
0 0 0
0 0 0
0 0 0
0 0 0
0 0 0
0 0 0
0 0 0
0 0 0
0 0 0
0 0 0
0 0 0
0 0 0
0 0 0
0 0 0
0 0 0
0 0 0
0 0 0
0 0 0
0 0 0
0 0 0
0 0 0
0 0 0
0 0 0
0 0 0
0 0 0
0 0 0
0 0 0
0 0 0
0 0 0
0 0 0
0 0 0
0 0 0
0 0 0
0 0 0
0 0 0
0 0 0
0 0 0
0 0 0
0 0 0
0 0 0
0 0 0
0 0 0
0 0 0
0 0 0
0 0 0
0 0 0
0 0 0
0 0 0
0 0 0
0 0 0
0 0 0
0 0 0
0 0 0
0 0 0
0 0 0
0 0 0
0 0 0
0 0 0
0 0 0
0 0 0
0 0 0
0 0 0
0 0 0
0 0 0
0 0 0
0 0 0
0 0 0
0 0 0
0 0 0
0 0 0
0 0 0
0 0 0
0 0 0
0 0 0
0 0 0
0 0 0
0 0 0
0 0 0
0 0 0
0 0 0
0 0 0
0 0 0
0 0 0
0 0 0
0 0 0
0 0 0
0 0 0
0 0 0
0 0 0
0 0 0
0 0 0
0 0 0
0 0 0
0 0 0
0 0 0
0 0 0
0 0 0
0 0 0
0 0 0
0 0 0
0 0 0
0 0 0
0 0 0
0 0 0
0 0 0
0 0 0
0 0 0
0 0 0
0 0 0
0 0 0
0 0 0
0 0 0
0 0 0
0 0 0
0 0 0
0 0 0
0 0 0
0 0 0
0 0 0
0 0 0
0 0 0
0 0 0
0 0 0
0 0 0
0 0 0
0 0 0
0 0 0
0 0 0
0 0 0
0 0 0
0 0 0
0 0 0
0 0 0
0 0 0
0 0 0
0 0 0
0 0 0
0 0 0
0 0 0
0 0 0
0 0 0
0 0 0
0 0 0
0 0 0
0 0 0
0 0 0
0 0 0
0 0 0
0 0 0
0 0 0
0 0 0
0 0 0
0 0 0
0 0 0
0 0 0
0 0 0
0 0 0
0 0 0
0 0 0
0 0 0
0 0 0
0 0 0
0 0 0
0 0 0
0 0 0
0 0 0
0 0 0
0 0 0
0 0 0
0 0 0
0 0 0
0 0 0
0 0 0
0 0 0
0 0 0
0 0 0
0 0 0
0 0 0
0 0 0
0 0 0
0 0 0
0 0 0
0 0 0
0 0 0
0 0 0
0 0 0
0 0 0
0 0 0
0 0 0
0 0 0
0 0 0
0 0 0
0 0 0
0 0 0
0 0 0
0 0 0
0 0 0
0 0 0
0 0 0
0 0 0
0 0 0
0 0 0
0 0 0
0 0 0
0 0 0
0 0 0
0 0 0
0 0 0
0 0 0
0 0 0
0 0 0
0 0 0
0 0 0
0 0 0
0 0 0
0 0 0
0 0 0
0 0 0
0 0 0
0 0 0
0 0 0
0 0 0
0 0 0
0 0 0
0 0 0
0 0 0
0 0 0
0 0 0
0 0 0
0 0 0
0 0 0
0 0 0
0 0 0
0 0 0
0 0 0
0 0 0
0 0 0
0 0 0
0 0 0
0 0 0
0 0 0
0 0 0
0 0 0
0 0 0
0 0 0
0 0 0
0 0 0
0 0 0
0 0 0
0 0 0
0 0 0
0 0 0
0 0 0
0 0 0
0 0 0
0 0 0
0 0 0
0 0 0
0 0 0
0 0 0
0 0 0
0 0 0
0 0 0
0 0 0
0 0 0
0 0 0
0 0 0
0 0 0
0 0 0
0 0 0
0 0 0
0 0 0
0 0 0
0 0 0
0 0 0
0 0 0
0 0 0
0 0 0
0 0 0
0 0 0
0 0 0
0 0 0
0 0 0
0 0 0
0 0 0
0 0 0
0 0 0
0 0 0
0 0 0
0 0 0
0 0 0
0 0 0
0 0 0
0 0 0
0 0 0
0 0 0
0 0 0
0 0 0
0 0 0
0 0 0
0 0 0
0 0 0
0 0 0
0 0 0
0 0 0
0 0 0
0 0 0
0 0 0
0 0 0
0 0 0
0 0 0
0 0 0
0 0 0
0 0 0
0 0 0
0 0 0
0 0 0
0 0 0
0 0 0
0 0 0
0 0 0
0 0 0
0 0 0
0 0 0
0 0 0
0 0 0
0 0 0
0 0 0
0 0 0
0 0 0
0 0 0
0 0 0
0 0 0
0 0 0
0 0 0
0 0 0
0 0 0
0 0 0
0 0 0
0 0 0
0 0 0
0 0 0
0 0 0
0 0 0
0 0 0
0 0 0
0 0 0
0 0 0
0 0 0
0 0 0
0 0 0
0 0 0
0 0 0
0 0 0
0 0 0
0 0 0
0 0 0
0 0 0
0 0 0
0 0 0
0 0 0
0 0 0
0 0 0
0 0 0
0 0 0
0 0 0
0 0 0
0 0 0
0 0 0
0 0 0
0 0 0
0 0 0
0 0 0
0 0 0
0 0 0
0 0 0
0 0 0
0 0 0
0 0 0
0 0 0
0 0 0
0 0 0
0 0 0
0 0 0
0 0 0
0 0 0
0 0 0
0 0 0
0 0 0
0 0 0
0 0 0
0 0 0
0 0 0
0 0 0
0 0 0
0 0 0
0 0 0
0 0 0
0 0 0
0 0 0
0 0 0
0 0 0
0 0 0
</DataArray>
<DataArray type="Float64" Name="cell vector length" format="ascii">
0 0 0 0 0 0 0 0 0 0 0 0 0 0 0 0 0 0 0 0 0 0 0 0 0 0 0 0 0 0 0 0 0 0 0 0 0 0 0 0 0 0 0 0 0 0 0 0 0 0 0 0 0 0 0 0 0 0 0 0 0 0 0 0 0 0 0 0 0 0 0 0 0 0 0 0 0 0 0 0 0 0 0 0 0 0 0 0 0 0 0 0 0 0 0 0 0 0 0 0 0 0 0 0 0 0 0 0 0 0 0 0 0 0 0 0 0 0 0 0 0 0 0 0 0 0 0 0 0 0 0 0 0 0 0 0 0 0 0 0 0 0 0 0 0 0 0 0 0 0 0 0 0 0 0 0 0 0 0 0 0 0 0 0 0 0 0 0 0 0 0 0 0 0 0 0 0 0 0 0 0 0 0 0 0 0 0 0 0 0 0 0 0 0 0 0 0 0 0 0 0 0 0 0 0 0 0 0 0 0 0 0 0 0 0 0 0 0 0 0 0 0 0 0 0 0 0 0 0 0 0 0 0 0 0 0 0 0 0 0 0 0 0 0 0 0 0 0 0 0 0 0 0 0 0 0 0 0 0 0 0 0 0 0 0 0 0 0 0 0 0 0 0 0 0 0 0 0 0 0 0 0 0 0 0 0 0 0 0 0 0 0 0 0 0 0 0 0 0 0 0 0 0 0 0 0 0 0 0 0 0 0 0 0 0 0 0 0 0 0 0 0 0 0 0 0 0 0 0 0 0 0 0 0 0 0 0 0 0 0 0 0 0 0 0 0 0 0 0 0 0 0 0 0 0 0 0 0 0 0 0 0 0 0 0 0 0 0 0 0 0 0 0 0 0 0 0 0 0 0 0 0 0 0 0 0 0 0 0 0 0 0 0 0 0 0 0 0 0 0 0 0 0 0 0 0 0 
</DataArray>
<DataArray type="Float64" Name="cell variable 4" format="ascii">
0.316217 0.000510187 0.657465 1.07467 0.249242 0.0032488 0.542818 0.94865 0.0505895 0.399988 0.23011 0.479217 0.23011 1.04461 0.573608 0.66381 0.334198 0.0032488 0.573608 0.161465 0.27464 0.99432 0.511974 0.511974 0.118662 0.495708 0.393381 0.179448 0.0824302 0.163146 0.332003 0.626025 0.980966 0.626025 0.437452 0.161465 0.36504 0.184973 0.673042 0.313432 0.252014 0.179448 0.187543 0.179448 0.626025 0.000319359 1.11547 0.434405 0.000705084 0.657465 0.848855 0.23011 0.442722 0.33356 0.673042 0.136507 1.06245 0.736473 1.11547 0.912892 0.573608 0.161465 0.187543 1.07467 0.736473 0.542818 1.12037 0.848855 0.130161 0.393247 0.00370628 0.503886 0.45141 0.118662 0.0976075 0.371127 0.000116047 0.0505895 0.45141 0.23011 0.442722 0.708918 0.495708 0.790107 0.118662 0.399988 0.0824302 1.10185 1.14226 0.371127 0.184973 0.708918 0.36504 0.334198 0.980966 0.00273317 0.118662 0.919422 0.503886 0.163146 0.503886 1.04461 0.249242 0.313432 0.631062 0.919422 0.479217 0.0978407 0.434405 0.912892 0.542818 0.790107 0.0773391 0.673042 0.184059 0.334198 0.542818 0.00103121 1.11547 0.789941 0.00403603 0.153908 0.399988 0.343308 0.393381 0.673042 0.179448 0.573608 0.99432 0.514292 0.514292 0.153908 0.789941 0.393381 0.66381 0.136507 0.50937 0.0773391 1.04461 0.789941 0.184973 1.00681 1.12037 0.393247 0.187543 0.980966 0.66381 0.99432 0.32239 0.848855 0.0773391 0.980966 0.00151096 0.919422 1.00681 0.161465 0.23011 0.790107 0.542818 0.23011 0.0097703 0.94865 0.848855 0.136507 0.187543 0.763876 0.657465 0.0505895 0.184973 0.36504 0.27464 0.184973 0.573608 0.371127 0.163146 0.313432 1.00681 1.00681 0.130161 0.0824302 1.12037 0.179448 0.00760007 0.657465 0.00103121 0.437452 0.657465 1.11547 0.313432 0.136507 0.23011 0.0646441 1.07467 0.399988 0.50937 0.789941 0.94865 0.0773391 0.8063 0.0773391 0.790107 0.393247 0.161465 0.657465 0.631062 0.50937 0.45141 0.00760007 0.763876 0.442722 0.514292 0.673042 0.631062 0.495708 0.0773391 0.153908 0.316217 0.136507 0.184973 0.00403603 0.252014 0.316217 0.434405 0.0824302 0.000306373 0.8063 0.511974 0.332003 0.0978407 0.763876 0.000157331 0.90618 0.27464 0.187543 1.04461 0.0646441 1.10185 0.479217 0.0976075 0.631062 0.184059 0.187543 0.343308 0.32239 0.32239 0.399988 0.90618 0.736473 0.153908 0.0505895 0.00760007 0.393247 0.626025 0.36504 0.316217 0.763876 1.10185 0.27464 0.0097703 0.437452 0.32239 0.514292 0.184059 0.45141 0.36504 0.27464 0.0978407 0.0505895 0.437452 0.919422 1.11547 0.789941 0.136507 0.542818 0.153908 0.163146 0.136507 0.631062 0.184973 0.0505895 0.187543 0.736473 0.00370628 0.912892 0.00103121 0.631062 0.00760007 0.343308 0.50937 0.0097703 0.0505895 0.23011 0.94865 0.0978407 0.332003 0.0032488 0.0646441 0.184973 0.66381 0.673042 0.912892 0.790107 0.153908 0.179448 0.0646441 0.118662 0.33356 0.313432 0.161465 0.90618 0.631062 0.542818 1.12037 1.07467 0.912892 0.153908 0.130161 1.11547 0.980966 0.8063 0.0824302 0.32239 0.161465 0.399988 0.332003 0.118662 0.153908 1.14226 0.573608 0.33356 0.163146 0.0824302 0.708918 0.252014 0.626025 0.479217 0.90618 0.495708 0.36504 0.118662 0.542818 0.249242 0.130161 0.393381 0.99432 1.06245 0.187543 0.848855 0.33356 0.434405 0.657465 0.573608 0.919422 0.442722 0.399988 0.252014 0.514292 0.8063 0.495708 1.14226 0.000319359 0.343308 0.313432 0.919422 0.919422 0.763876 0.848855 0.313432 0.789941 1.11547 0.00370628 0.442722 0.0773391 1.10185 0.23011 0.790107 0.136507 0.184059 0.673042 0.626025 0.66381 0.511974 1.06245 0.514292 0.0976075 0.343308 0.252014 0.249242 1.14226 0.631062 0.626025 1.04461 0.179448 0.371127 0.334198 0.919422 0.66381 0.511974 1.06245 0.161465 0.0976075 0.252014 0.789941 0.442722 0.673042 0.495708 0.912892 
</DataArray>
<DataArray type="Float64" Name="cell variable 5" format="ascii">
0.0909148 0.999974 0.0226112 0.00858434 0.138655 0.998946 0.0328244 0.0109898 0.796223 0.0588268 0.158855 0.0417277 0.158855 0.00908091 0.0294962 0.0221905 0.082177 0.998946 0.0294962 0.277231 0.117059 0.0100133 0.0367488 0.0367488 0.415271 0.0391044 0.0606986 0.236958 0.595425 0.273099 0.0831765 0.0248813 0.0102849 0.0248813 0.0496613 0.277231 0.0698059 0.226167 0.021599 0.0923878 0.136034 0.236958 0.221374 0.236958 0.0248813 0.99999 0.00797274 0.0503251 0.99995 0.0226112 0.0136882 0.158855 0.0485429 0.0824658 0.021599 0.349234 0.00878122 0.0181031 0.00797274 0.0118572 0.0294962 0.277231 0.221374 0.00858434 0.0181031 0.0328244 0.00790366 0.0136882 0.371169 0.0607373 0.998628 0.037893 0.0467791 0.415271 0.512105 0.0676886 0.999999 0.796223 0.0467791 0.158855 0.0485429 0.0195097 0.0391044 0.0157662 0.415271 0.0588268 0.595425 0.00816951 0.00760594 0.0676886 0.226167 0.0195097 0.0698059 0.082177 0.0102849 0.999254 0.415271 0.0116913 0.037893 0.273099 0.037893 0.00908091 0.138655 0.0923878 0.0244954 0.0116913 0.0417277 0.510913 0.0503251 0.0118572 0.0328244 0.0157662 0.62573 0.021599 0.227907 0.082177 0.0328244 0.999894 0.00797274 0.0157727 0.998374 0.296844 0.0588268 0.0782104 0.0606986 0.021599 0.236958 0.0294962 0.0100133 0.0364304 0.0364304 0.296844 0.0157727 0.0606986 0.0221905 0.349234 0.0371116 0.62573 0.00908091 0.0157727 0.226167 0.00976872 0.00790366 0.0607373 0.221374 0.0102849 0.0221905 0.0100133 0.0877689 0.0136882 0.62573 0.0102849 0.999772 0.0116913 0.00976872 0.277231 0.158855 0.0157662 0.0328244 0.158855 0.990544 0.0109898 0.0136882 0.349234 0.221374 0.016849 0.0226112 0.796223 0.226167 0.0698059 0.117059 0.226167 0.0294962 0.0676886 0.273099 0.0923878 0.00976872 0.00976872 0.371169 0.595425 0.00790366 0.236958 0.994257 0.0226112 0.999894 0.0496613 0.0226112 0.00797274 0.0923878 0.349234 0.158855 0.705275 0.00858434 0.0588268 0.0371116 0.0157727 0.0109898 0.62573 0.0151488 0.62573 0.0157662 0.0607373 0.277231 0.0226112 0.0244954 0.0371116 0.0467791 0.994257 0.016849 0.0485429 0.0364304 0.021599 0.0244954 0.0391044 0.62573 0.296844 0.0909148 0.349234 0.226167 0.998374 0.136034 0.0909148 0.0503251 0.595425 0.999991 0.0151488 0.0367488 0.0831765 0.510913 0.016849 0.999998 0.0120314 0.117059 0.221374 0.00908091 0.705275 0.00816951 0.0417277 0.512105 0.0244954 0.227907 0.221374 0.0782104 0.0877689 0.0877689 0.0588268 0.0120314 0.0181031 0.296844 0.796223 0.994257 0.0607373 0.0248813 0.0698059 0.0909148 0.016849 0.00816951 0.117059 0.990544 0.0496613 0.0877689 0.0364304 0.227907 0.0467791 0.0698059 0.117059 0.510913 0.796223 0.0496613 0.0116913 0.00797274 0.0157727 0.349234 0.0328244 0.296844 0.273099 0.349234 0.0244954 0.226167 0.796223 0.221374 0.0181031 0.998628 0.0118572 0.999894 0.0244954 0.994257 0.0782104 0.0371116 0.990544 0.796223 0.158855 0.0109898 0.510913 0.0831765 0.998946 0.705275 0.226167 0.0221905 0.021599 0.0118572 0.0157662 0.296844 0.236958 0.705275 0.415271 0.0824658 0.0923878 0.277231 0.0120314 0.0244954 0.0328244 0.00790366 0.00858434 0.0118572 0.296844 0.371169 0.00797274 0.0102849 0.0151488 0.595425 0.0877689 0.277231 0.0588268 0.0831765 0.415271 0.296844 0.00760594 0.0294962 0.0824658 0.273099 0.595425 0.0195097 0.136034 0.0248813 0.0417277 0.0120314 0.0391044 0.0698059 0.415271 0.0328244 0.138655 0.371169 0.0606986 0.0100133 0.00878122 0.221374 0.0136882 0.0824658 0.0503251 0.0226112 0.0294962 0.0116913 0.0485429 0.0588268 0.136034 0.0364304 0.0151488 0.0391044 0.00760594 0.99999 0.0782104 0.0923878 0.0116913 0.0116913 0.016849 0.0136882 0.0923878 0.0157727 0.00797274 0.998628 0.0485429 0.62573 0.00816951 0.158855 0.0157662 0.349234 0.227907 0.021599 0.0248813 0.0221905 0.0367488 0.00878122 0.0364304 0.512105 0.0782104 0.136034 0.138655 0.00760594 0.0244954 0.0248813 0.00908091 0.236958 0.0676886 0.082177 0.0116913 0.0221905 0.0367488 0.00878122 0.277231 0.512105 0.136034 0.0157727 0.0485429 0.021599 0.0391044 0.0118572 
</DataArray>
<DataArray type="Float64" Name="cell variable 6" format="ascii">
0.0038835 1.00883 8.84138e-05 5.3719e-06 0.0566856 1.00681 0.000251962 1.10661e-05 0.900072 0.00127682 0.0671729 0.00051123 0.0671729 6.33494e-06 0.000187165 8.3838e-05 0.00576492 1.00681 0.000187165 0.298329 0.02163 8.43313e-06 0.00035504 0.00035504 0.533485 0.000410215 0.00151522 0.235078 0.752638 0.294057 0.00364689 0.000115922 9.11938e-06 0.000115922 0.000885689 0.298329 0.0019794 0.208208 7.76673e-05 0.00439847 0.0441278 0.235078 0.185318 0.235078 0.000115922 1.00896 4.32387e-06 0.000857904 1.0087 8.84138e-05 2.09522e-05 0.0671729 0.000858618 0.00403961 7.76673e-05 0.432355 5.74138e-06 4.69278e-05 4.32387e-06 1.38076e-05 0.000187165 0.298329 0.185318 5.3719e-06 4.69278e-05 0.000251962 4.21468e-06 2.09522e-05 0.477444 0.00202135 1.00642 0.000380196 0.000696942 0.533485 0.67289 0.0019189 1.0091 0.900072 0.000696942 0.0671729 0.000858618 5.81379e-05 0.000410215 3.15261e-05 0.533485 0.00127682 0.752638 4.64493e-06 3.76475e-06 0.0019189 0.208208 5.81379e-05 0.0019794 0.00576492 9.11938e-06 1.00716 0.533485 1.32528e-05 0.000380196 0.294057 0.000380196 6.33494e-06 0.0566856 0.00439847 0.000110922 1.32528e-05 0.00051123 0.674122 0.000857904 1.38076e-05 0.000251962 3.15261e-05 0.780596 7.76673e-05 0.235443 0.00576492 0.000251962 1.00849 4.32387e-06 3.156e-05 1.00605 0.3398 0.00127682 0.00310284 0.00151522 7.76673e-05 0.235078 0.000187165 8.43313e-06 0.000349016 0.000349016 0.3398 3.156e-05 0.00151522 8.3838e-05 0.432355 0.000394946 0.780596 6.33494e-06 3.156e-05 0.208208 7.8448e-06 4.21468e-06 0.00202135 0.185318 9.11938e-06 8.3838e-05 8.43313e-06 0.00628005 2.09522e-05 0.780596 9.11938e-06 1.00816 1.32528e-05 7.8448e-06 0.298329 0.0671729 3.15261e-05 0.000251962 0.0671729 1.00014 1.10661e-05 2.09522e-05 0.432355 0.185318 3.81646e-05 8.84138e-05 0.900072 0.208208 0.0019794 0.02163 0.208208 0.000187165 0.0019189 0.294057 0.00439847 7.8448e-06 7.8448e-06 0.477444 0.752638 4.21468e-06 0.235078 1.00277 8.84138e-05 1.00849 0.000885689 8.84138e-05 4.32387e-06 0.00439847 0.432355 0.0671729 0.841792 5.3719e-06 0.00127682 0.000394946 3.156e-05 1.10661e-05 0.780596 2.80904e-05 0.780596 3.15261e-05 0.00202135 0.298329 8.84138e-05 0.000110922 0.000394946 0.000696942 1.00277 3.81646e-05 0.000858618 0.000349016 7.76673e-05 0.000110922 0.000410215 0.780596 0.3398 0.0038835 0.432355 0.208208 1.00605 0.0441278 0.0038835 0.000857904 0.752638 1.00897 2.80904e-05 0.00035504 0.00364689 0.674122 3.81646e-05 1.00907 1.4406e-05 0.02163 0.185318 6.33494e-06 0.841792 4.64493e-06 0.00051123 0.67289 0.000110922 0.235443 0.185318 0.00310284 0.00628005 0.00628005 0.00127682 1.4406e-05 4.69278e-05 0.3398 0.900072 1.00277 0.00202135 0.000115922 0.0019794 0.0038835 3.81646e-05 4.64493e-06 0.02163 1.00014 0.000885689 0.00628005 0.000349016 0.235443 0.000696942 0.0019794 0.02163 0.674122 0.900072 0.000885689 1.32528e-05 4.32387e-06 3.156e-05 0.432355 0.000251962 0.3398 0.294057 0.432355 0.000110922 0.208208 0.900072 0.185318 4.69278e-05 1.00642 1.38076e-05 1.00849 0.000110922 1.00277 0.00310284 0.000394946 1.00014 0.900072 0.0671729 1.10661e-05 0.674122 0.00364689 1.00681 0.841792 0.208208 8.3838e-05 7.76673e-05 1.38076e-05 3.15261e-05 0.3398 0.235078 0.841792 0.533485 0.00403961 0.00439847 0.298329 1.4406e-05 0.000110922 0.000251962 4.21468e-06 5.3719e-06 1.38076e-05 0.3398 0.477444 4.32387e-06 9.11938e-06 2.80904e-05 0.752638 0.00628005 0.298329 0.00127682 0.00364689 0.533485 0.3398 3.76475e-06 0.000187165 0.00403961 0.294057 0.752638 5.81379e-05 0.0441278 0.000115922 0.00051123 1.4406e-05 0.000410215 0.0019794 0.533485 0.000251962 0.0566856 0.477444 0.00151522 8.43313e-06 5.74138e-06 0.185318 2.09522e-05 0.00403961 0.000857904 8.84138e-05 0.000187165 1.32528e-05 0.000858618 0.00127682 0.0441278 0.000349016 2.80904e-05 0.000410215 3.76475e-06 1.00896 0.00310284 0.00439847 1.32528e-05 1.32528e-05 3.81646e-05 2.09522e-05 0.00439847 3.156e-05 4.32387e-06 1.00642 0.000858618 0.780596 4.64493e-06 0.0671729 3.15261e-05 0.432355 0.235443 7.76673e-05 0.000115922 8.3838e-05 0.00035504 5.74138e-06 0.000349016 0.67289 0.00310284 0.0441278 0.0566856 3.76475e-06 0.000110922 0.000115922 6.33494e-06 0.235078 0.0019189 0.00576492 1.32528e-05 8.3838e-05 0.00035504 5.74138e-06 0.298329 0.67289 0.0441278 3.156e-05 0.000858618 7.76673e-05 0.000410215 1.38076e-05 
</DataArray>
<DataArray type="Float64" Name="cell variable 7" format="ascii">
0.357275 0.805214 0.176526 0.0863829 0.413855 0.731648 0.214434 0.109939 0.667622 0.285858 0.46057 0.24144 0.46057 0.091923 0.203114 0.174715 0.334908 0.731648 0.203114 0.543895 0.399197 0.10127 0.2268 0.2268 0.633332 0.233945 0.290041 0.481302 0.652741 0.531783 0.340125 0.185875 0.103782 0.185875 0.262734 0.543895 0.311423 0.488241 0.172124 0.360012 0.422896 0.481302 0.511928 0.481302 0.185875 0.786592 0.0788486 0.264653 0.790771 0.176526 0.129973 0.46057 0.259721 0.337987 0.172124 0.58017 0.0886341 0.15552 0.0788486 0.116913 0.203114 0.543895 0.511928 0.0863829 0.15552 0.214434 0.0779382 0.129973 0.557964 0.288948 0.736426 0.230311 0.255368 0.633332 0.58928 0.306453 0.821805 0.667622 0.255368 0.46057 0.259721 0.162493 0.233945 0.142821 0.633332 0.285858 0.652741 0.0813708 0.0738515 0.306453 0.488241 0.162493 0.311423 0.334908 0.103782 0.786302 0.633332 0.115625 0.230311 0.531783 0.230311 0.091923 0.413855 0.360012 0.184332 0.115625 0.24144 0.570965 0.264653 0.116913 0.214434 0.142821 0.646851 0.172124 0.426674 0.334908 0.214434 0.74517 0.0788486 0.142859 0.781706 0.544906 0.285858 0.329428 0.290041 0.172124 0.481302 0.203114 0.10127 0.225806 0.225806 0.544906 0.142859 0.290041 0.174715 0.58017 0.227704 0.646851 0.091923 0.142859 0.488241 0.0989326 0.0779382 0.288948 0.511928 0.103782 0.174715 0.10127 0.347352 0.129973 0.646851 0.103782 0.723507 0.115625 0.0989326 0.543895 0.46057 0.142821 0.214434 0.46057 0.724735 0.109939 0.129973 0.58017 0.511928 0.148901 0.176526 0.667622 0.488241 0.311423 0.399197 0.488241 0.203114 0.306453 0.531783 0.360012 0.0989326 0.0989326 0.557964 0.652741 0.0779382 0.481302 0.695937 0.176526 0.74517 0.262734 0.176526 0.0788486 0.360012 0.58017 0.46057 0.663687 0.0863829 0.285858 0.227704 0.142859 0.109939 0.646851 0.139181 0.646851 0.142821 0.288948 0.543895 0.176526 0.184332 0.227704 0.255368 0.695937 0.148901 0.259721 0.225806 0.172124 0.184332 0.233945 0.646851 0.544906 0.357275 0.58017 0.488241 0.781706 0.422896 0.357275 0.264653 0.652741 0.774006 0.139181 0.2268 0.340125 0.570965 0.148901 0.802201 0.118245 0.399197 0.511928 0.091923 0.663687 0.0813708 0.24144 0.58928 0.184332 0.426674 0.511928 0.329428 0.347352 0.347352 0.285858 0.118245 0.15552 0.544906 0.667622 0.695937 0.288948 0.185875 0.311423 0.357275 0.148901 0.0813708 0.399197 0.724735 0.262734 0.347352 0.225806 0.426674 0.255368 0.311423 0.399197 0.570965 0.667622 0.262734 0.115625 0.0788486 0.142859 0.58017 0.214434 0.544906 0.531783 0.58017 0.184332 0.488241 0.667622 0.511928 0.15552 0.736426 0.116913 0.74517 0.184332 0.695937 0.329428 0.227704 0.724735 0.667622 0.46057 0.109939 0.570965 0.340125 0.731648 0.663687 0.488241 0.174715 0.172124 0.116913 0.142821 0.544906 0.481302 0.663687 0.633332 0.337987 0.360012 0.543895 0.118245 0.184332 0.214434 0.0779382 0.0863829 0.116913 0.544906 0.557964 0.0788486 0.103782 0.139181 0.652741 0.347352 0.543895 0.285858 0.340125 0.633332 0.544906 0.0738515 0.203114 0.337987 0.531783 0.652741 0.162493 0.422896 0.185875 0.24144 0.118245 0.233945 0.311423 0.633332 0.214434 0.413855 0.557964 0.290041 0.10127 0.0886341 0.511928 0.129973 0.337987 0.264653 0.176526 0.203114 0.115625 0.259721 0.285858 0.422896 0.225806 0.139181 0.233945 0.0738515 0.786592 0.329428 0.360012 0.115625 0.115625 0.148901 0.129973 0.360012 0.142859 0.0788486 0.736426 0.259721 0.646851 0.0813708 0.46057 0.142821 0.58017 0.426674 0.172124 0.185875 0.174715 0.2268 0.0886341 0.225806 0.58928 0.329428 0.422896 0.413855 0.0738515 0.184332 0.185875 0.091923 0.481302 0.306453 0.334908 0.115625 0.174715 0.2268 0.0886341 0.543895 0.58928 0.422896 0.142859 0.259721 0.172124 0.233945 0.116913 
</DataArray>
<DataArray type="Float64" Name="cell variable 8" format="ascii">