<VTKFile type="UnstructuredGrid" version="0.1">
<UnstructuredGrid>
<Piece  NumberOfPoints="    3310" NumberOfCells="    2429">
<Points>
<DataArray type="Float64" NumberOfComponents="3" format="ascii">
-32.0438 38.6844 0 
9.71871 8.98144 0 
56.5334 -6.95082 0 
20.0912 -32.1352 0 
-30.499 53.7351 0 
-42.0384 19.5062 0 
9.79058 -48.1849 0 
-62.1984 -13.7257 0 
0.157099 -58.1187 0 
1.62638 -30.1915 0 
14.9476 -1.40543 0 
53.4919 -25.3645 0 
-15.9944 46.2743 0 
53.6162 -33.6279 0 
15.6433 15.4787 0 
-12.0435 -47.7752 0 
-23.4978 20.4899 0 
-6.84095 19.8117 0 
-33.4711 -43.1163 0 
35.6896 -21.2807 0 
-4.55017 31.4078 0 
45.2673 -24.2719 0 
30.5747 -0.599485 0 
6.45869 0.637605 0 
1.26578 -35.1084 0 
61.3078 -11.6335 0 
-29.2692 -36.3645 0 
-47.5126 37.7422 0 
-52.8318 -4.36162 0 
-60.1313 6.56756 0 
1.74544 -20.728 0 
50.2541 25.7645 0 
-24.4919 37.267 0 
-32.9681 -2.24683 0 
-32.2985 -16.218 0 
-13.6164 -47.4241 0 
-15.4546 40.2699 0 
-10.3219 56.5852 0 
-6.70815 4.90026 0 
12.2288 -53.0682 0 
44.2046 39.6433 0 
-56.4565 -4.08126 0 
-0.361851 -11.6883 0 
55.0951 17.8299 0 
20.1909 54.9817 0 
-30.9761 47.1664 0 
-14.2263 -0.980467 0 
-31.2824 37.3776 0 
6.38787 24.0158 0 
-4.85974 -48.9776 0 
45.3018 -40.0226 0 
-0.939092 -35.4175 0 
-28.6914 -10.5235 0 
22.6437 2.37076 0 
-28.7534 -27.2289 0 
-49.6023 7.89285 0 
-11.4054 -59.0374 0 
42.0589 -45.7168 0 
15.3318 -30.5615 0 
6.51377 48.2743 0 
-29.958 37.2891 0 
-39.8791 0.595804 0 
-5.77869 -49.3561 0 
47.1521 -30.3037 0 
56.6362 10.8532 0 
-15.2555 -37.8837 0 
27.5983 35.3809 0 
-27.3867 -42.6137 0 
27.2461 -20.0095 0 
-36.8131 46.0904 0 
16.6559 -4.46629 0 
-19.7832 42.2624 0 
25.4398 -40.2941 0 
40.1046 -14.8473 0 
20.6061 3.01742 0 
-54.1791 -23.2966 0 
28.159 -31.027 0 
-36.4539 -37.0581 0 
29.7 -53.0488 0 
-13.0258 56.8874 0 
-39.0457 0.0818441 0 
34.877 -44.4973 0 
-11.6591 -12.0346 0 
-15.9081 -48.6859 0 
-37.6394 18.5187 0 
0.60567 30.1573 0 
35.0401 12.088 0 
-29.9565 12.2798 0 
-53.3992 10.3319 0 
-43.1996 -11.0607 0 
2.30784 -55.5284 0 
-33.138 -32.75 0 
27.4579 37.3032 0 
8.01222 14.5789 0 
33.9032 -45.308 0 
26.9099 24.8543 0 
35.0456 -2.68021 0 
-25.2227 46.8152 0 
44.9138 19.8666 0 
13.2557 -40.8967 0 
-48.3461 -39.6728 0 
38.5047 -5.73674 0 
57.6634 14.643 0 
-17.7125 -5.16852 0 
37.4634 -4.16953 0 
-16.348 -0.915632 0 
-20.1879 -43.3891 0 
36.2295 -3.12484 0 
20.1174 -35.9214 0 
46.1855 -13.8496 0 
8.16576 -49.063 0 
-20.2433 14.5373 0 
-44.1127 33.9046 0 
28.7532 47.6803 0 
56.3442 -23.135 0 
-0.582227 -16.7509 0 
-37.1626 -34.1362 0 
8.65818 -28.9687 0 
-6.28943 -26.8087 0 
45.3159 -5.91141 0 
36.5032 8.67408 0 
8.11678 -0.942957 0 
-28.7867 14.566 0 
-0.568889 14.5275 0 
28.8055 -33.5152 0 
-40.6357 -42.0187 0 
-18.3793 -24.9474 0 
21.0307 12.8245 0 
-50.9312 -18.2021 0 
-25.8418 -57.0239 0 
25.2771 -45.8596 0 
-26.3722 -2.09208 0 
12.5917 5.71578 0 
-14.7044 -21.5244 0 
44.3179 -26.0224 0 
-55.4881 -20.2416 0 
39.2894 -6.82723 0 
40.4765 -33.7995 0 
-56.7672 -9.60199 0 
-31.336 53.2434 0 
20.5845 31.8992 0 
50.271 -22.7714 0 
13.628 27.2123 0 
-6.66557 19.6592 0 
-38.9462 8.31185 0 
3.69242 38.2164 0 
23.0722 46.5707 0 
27.485 -30.9093 0 
50.2988 26.868 0 
15.6327 50.0959 0 
19.9248 23.5007 0 
47.4686 14.5403 0 
-32.1474 -2.75571 0 
-26.999 54.4216 0 
33.6322 -39.4342 0 
25.9216 42.7807 0 
10.2681 22.8544 0 
23.168 14.6948 0 
-29.0578 24.545 0 
9.55057 42.4305 0 
-26.5881 -4.49863 0 
-15.3667 -17.3682 0 
-38.5311 -20.7724 0 
16.6988 -36.0687 0 
42.1107 11.8409 0 
26.5601 -8.56477 0 
29.3158 39.6965 0 
20.4564 -21.5312 0 
1.90322 21.6019 0 
-20.4144 -30.0788 0 
31.2297 8.85672 0 
-31.6174 19.178 0 
-41.0609 17.4906 0 
-14.6258 -31.3227 0 
6.96602 -9.89663 0 
-34.5846 47.149 0 
-16.5311 30.4503 0 
-32.3101 4.00903 0 
28.0194 34.8144 0 
16.8654 -9.92114 0 
10.8556 62.4787 0 
-48.9552 -24.2455 0 
-54.1176 26.473 0 
-3.76689 -59.9557 0 
-13.3453 22.6938 0 
53.8667 -32.7642 0 
-43.5818 11.7237 0 
12.9526 34.9911 0 
12.0472 -11.6934 0 
-32.9946 -15.2642 0 
58.4422 -0.115782 0 
19.2988 6.88891 0 
-47.8275 16.7806 0 
-46.3945 -5.23082 0 
-31.6888 6.34062 0 
36.1595 -21.6612 0 
6.85478 14.4749 0 
-22.6747 12.0706 0 
3.98068 6.67276 0 
-20.4152 49.0855 0 
53.2925 -30.0474 0 
35.4676 -3.09883 0 
-17.6006 13.3343 0 
-26.1944 54.32 0 
-15.5052 -37.8517 0 
-1.5256 17.5456 0 
30.2241 -29.9107 0 
-16.547 42.6406 0 
-2.17339 -6.05086 0 
-43.9509 21.7893 0 
-56.6337 3.00488 0 
-23.2393 -38.0622 0 
-11.0405 32.3349 0 
1.25401 56.6528 0 
7.6592 29.6963 0 
-26.6537 -54.5788 0 
-38.9304 33.6044 0 
-4.72781 48.0222 0 
45.1109 -1.45503 0 
-5.65614 31.1425 0 
-16.3729 22.8472 0 
-31.7571 4.50675 0 
-9.96011 45.1516 0 
34.3245 23.92 0 
14.3709 29.5065 0 
21.6716 -38.0887 0 
15.6274 -59.0701 0 
-4.67573 60.5192 0 
-36.7778 -10.8644 0 
-6.00307 27.7449 0 
-2.68414 23.7775 0 
19.2765 -2.78588 0 
-35.6818 27.3116 0 
0.633145 -47.2012 0 
29.3648 -42.4871 0 
23.7521 -46.1381 0 
-56.4864 -14.716 0 
-10.1384 7.69579 0 
-28.7387 13.4533 0 
-24.7029 -19.9709 0 
-45.711 -7.09462 0 
-2.09163 25.2055 0 
-22.3 -8.19443 0 
-46.036 -2.20649 0 
26.3524 -13.2176 0 
-37.9625 18.2554 0 
2.17755 15.0621 0 
-6.13235 -25.5364 0 
-11.3017 21.6049 0 
14.7921 58.4159 0 
-11.8162 -52.7508 0 
20.1085 -24.0624 0 
-42.6251 -21.5599 0 
31.6588 -12.5999 0 
8.21935 -24.0968 0 
42.1481 -44.9945 0 
-35.225 -7.5203 0 
11.9682 -36.2658 0 
31.3538 -2.38691 0 
17.2834 -58.1544 0 
-24.708 -37.8953 0 
-43.4108 -31.4724 0 
-30.9262 19.2304 0 
46.5713 -38.6967 0 
3.81636 -19.4418 0 
17.934 -11.9641 0 
-10.8121 10.6952 0 
0.417302 50.3553 0 
14.6037 -48.0699 0 
32.4707 -16.6074 0 
-15.1524 31.5942 0 
-20.1069 -30.7871 0 
-28.8521 -44.5778 0 
47.3819 24.0515 0 
18.5547 10.9239 0 
34.6094 34.5919 0 
-18.6522 -25.7636 0 
-29.5345 24.3038 0 
-22.4226 -46.4964 0 
-6.96833 -5.6563 0 
11.8851 43.3162 0 
-41.6346 0.542345 0 
-12.2579 48.2933 0 
42.5194 38.4197 0 
0.385593 -53.0635 0 
34.8859 41.395 0 
-8.93255 45.5207 0 
10.8594 37.9096 0 
16.5883 -40.7864 0 
46.2551 7.02899 0 
-35.7963 -15.5944 0 
-5.48316 -29.0663 0 
-3.60398 20.1324 0 
-19.6823 17.9385 0 
55.5226 7.56602 0 
48.7739 -9.66089 0 
-12.4798 -30.783 0 
-0.926443 29.1921 0 
13.0821 43.0512 0 
-6.18551 -32.7043 0 
11.3334 51.9108 0 
8.30603 23.0988 0 
60.1536 -15.3993 0 
-8.04167 51.0638 0 
4.53103 47.8572 0 
-53.599 23.9127 0 
8.94176 35.8563 0 
1.78439 15.3847 0 
38.5158 25.376 0 
24.631 28.0963 0 
2.57156 41.5995 0 
-10.193 38.9615 0 
-49.2519 4.26582 0 
-47.2816 -40.4307 0 
16.6672 -5.49855 0 
-51.0388 0.312704 0 
-18.517 13.9322 0 
-6.37418 -14.8952 0 
32.1045 -10.975 0 
39.7674 -38.6315 0 
26.5683 -24.5448 0 
33.0585 -7.2925 0 
-4.1924 45.6185 0 
25.5794 1.92893 0 
50.5952 35.4875 0 
-39.6426 38.3848 0 
61.3978 -12.2088 0 
7.3521 -23.8293 0 
-41.7816 45.5229 0 
-27.3821 0.501152 0 
18.1834 -12.5834 0 
-40.1291 -33.5576 0 
-42.7469 -33.0179 0 
-26.9217 -28.019 0 
20.1754 28.6222 0 
19.7237 -20.4396 0 
-50.4094 -33.659 0 
-49.4029 31.2409 0 
-45.9668 -6.79391 0 
-20.7821 17.1763 0 
-45.7604 29.0604 0 
-32.3588 -30.7152 0 
22.5418 -41.6462 0 
46.6118 7.43522 0 
44.9997 32.2713 0 
-19.6129 58.1304 0 
-2.06997 19.1906 0 
-57.8614 -7.36782 0 
-9.69357 6.13094 0 
-20.892 -52.3239 0 
-32.3251 36.3249 0 
-14.6371 -38.0859 0 
-16.5142 6.05186 0 
27.3562 -53.7909 0 
7.43609 -12.3258 0 
-21.0413 36.0914 0 
-44.1177 23.9289 0 
41.1442 -33.7211 0 
-48.4398 14.3047 0 
-40.1396 46.5837 0 
53.6063 -27.9829 0 
-9.03731 -47.7654 0 
-45.6633 40.241 0 
-21.0566 6.74964 0 
-39.553 -46.164 0 
3.77987 17.7219 0 
-9.28366 37.9323 0 
46.0771 30.107 0 
53.18 19.0263 0 
0.425563 -0.638333 0 
-1.73444 -20.4336 0 
-20.4488 -49.5643 0 
-0.290191 50.1404 0 
13.1933 32.1798 0 
3.43452 -20.1431 0 
-36.6934 -35.1719 0 
33.3101 -37.9654 0 
0.341774 -35.5544 0 
-11.4769 12.0661 0 
3.45409 -5.87522 0 
-61.01 8.22839 0 
-26.8978 26.0938 0 
61.2748 6.37936 0 
9.69213 57.2319 0 
-15.8217 -55.8792 0 
-29.1497 16.498 0 
39.017 24.259 0 
57.8044 21.8634 0 
-9.39192 33.08 0 
-29.602 35.9657 0 
55.0244 -15.4392 0 
-5.58357 3.9452 0 
8.8896 30.2661 0 
52.5307 -1.54674 0 
17.2464 -8.72346 0 
-38.2491 2.04471 0 
-49.3072 -25.0957 0 
-31.8973 -19.7371 0 
-11.4112 32.0815 0 
43.4314 -43.0092 0 
37.133 -26.8313 0 
-17.0874 -24.294 0 
47.2503 -22.0702 0 
-52.2951 17.5119 0 
1.76827 -30.9916 0 
-49.6956 0.49843 0 
29.8331 39.8188 0 
-23.5992 11.92 0 
-5.84096 -40.079 0 
11.3369 21.0823 0 
-37.769 11.2122 0 
35.1751 25.7363 0 
29 18.6692 0 
-25.7685 19.0528 0 
-35.7759 -50.6605 0 
35.8764 47.1389 0 
-6.13738 0.499705 0 
-0.301541 9.18803 0 
-44.2051 -8.00678 0 
37.2226 -32.7425 0 
-31.7157 -39.1516 0 
19.9815 34.8999 0 
-41.4689 -33.879 0 
23.6028 13.3632 0 
43.3433 18.4195 0 
-53.9268 8.28459 0 
-38.4849 -24.6524 0 
61.0787 -13.3126 0 
-36.1274 28.3244 0 
7.57012 14.266 0 
17.7959 -28.3564 0 
33.2963 31.5026 0 
-42.3236 13.3631 0 
-10.4737 8.0674 0 
-20.8045 -0.950874 0 
-57.5842 -8.70314 0 
-42.6251 -40.0462 0 
6.1314 -6.8265 0 
-20.7908 31.8363 0 
40.9082 0.985718 0 
-11.496 -18.4089 0 
48.942 4.03656 0 
26.1808 -53.8139 0 
42.9467 8.18949 0 
-37.4045 33.6763 0 
-24.5644 -20.7345 0 
17.3982 48.3236 0 
-26.0856 -23.4746 0 
-25.9579 53.2981 0 
37.025 18.1609 0 
-36.942 -15.2026 0 
47.1654 -6.43667 0 
-21.4835 42.6896 0 
1.98858 37.3223 0 
-12.714 -47.3522 0 
18.9107 -20.4545 0 
17.5319 -28.5668 0 
13.2225 -19.8131 0 
-5.36262 -39.6084 0 
18.2533 9.88511 0 
-46.5086 39.5208 0 
-25.5399 -19.2544 0 
33.8015 41.9728 0 
-23.0976 30.0503 0 
-42.893 12.9912 0 
11.9589 -22.9226 0 
-36.0877 46.0874 0 
32.5748 41.4818 0 
16.1431 -58.8923 0 
52.7308 19.6675 0 
-29.4987 -10.7791 0 
7.523 -49.8501 0 
14.9053 -25.5152 0 
30.6139 -52.1263 0 
-13.0713 -57.0629 0 
-8.90256 -19.5884 0 
-0.794946 -21.1599 0 
37.6316 -25.9681 0 
14.8113 -16.7216 0 
3.57734 22.6318 0 
13.2149 34.6302 0 
-17.9254 48.6084 0 
13.0567 -19.289 0 
-9.93965 -5.77128 0 
11.0041 -46.5362 0 
-7.54749 -5.29606 0 
-13.3383 -43.1031 0 
26.7634 -7.37981 0 
5.01969 -13.0196 0 
-7.60786 -24.5032 0 
21.3592 2.14796 0 
34.1938 -40.4713 0 
-3.53839 31.3807 0 
[...]
<CellData Scalars="wall variable 0">
<DataArray type="Float64" Name="wall length" format="ascii">
0.899045 6.13689 1.90377 4.88294 5.62457 0.646264 6.23881 1.03593 5.89197 0.776464 11.6634 3.09999 6.82074 1.50176 1.078 5.98156 2.3583 10.3012 2.08269 0.38922 10.1999 1.18517 1.48481 4.8447 0.917082 3.86083 2.40828 2.88474 4.10993 2.18581 5.64931 4.47125 0.699353 5.29565 0.787913 2.90721 4.85943 3.79172 0.448477 0.75109 7.3162 2.65281 5.52891 3.20099 4.87859 2.09999 5.67258 2.60925 5.08438 5.26912 3.62017 0.609865 2.59939 1.77003 2.72813 4.59598 2.82388 8.22138 0.297336 6.1782 3.4696 2.8706 4.53108 1.61945 2.56746 2.63448 0.143792 7.17582 3.22601 1.25178 2.82388 1.4679 4.07366 0.724817 4.66894 0.536144 1.95929 1.24761 4.18248 4.4624 1.62084 6.43779 3.99055 0.468096 2.95639 5.49497 0.925229 0.37359 6.00069 1.16678 3.9167 2.60787 2.89204 0.195287 6.70228 0.838679 5.94071 1.51948 2.70375 2.93261 2.51528 1.24125 1.91867 3.30897 2.8431 1.83418 6.76828 1.58362 1.33446 0.58694 3.99055 3.28339 8.10673 1.08331 4.02266 2.7206 1.25907 1.94472 8.58267 0.27639 0.386716 0.500113 2.58237 1.81445 3.79637 1.25554 8.70729 0.170304 2.41549 4.82942 1.03676 1.77487 1.43596 9.31572 2.01987 7.57021 0.967307 4.46898 6.391 1.36114 4.3254 0.972914 2.01504 0.815232 1.78635 6.09605 6.20605 0.513152 4.43907 6.94747 0.666115 6.76828 4.40213 7.42078 0.949693 6.84413 0.833686 1.63045 2.42925 9.24198 2.25351 3.16576 1.23996 2.40479 1.9735 5.56518 1.10932 6.36377 0.608313 3.52455 2.53984 7.97125 4.59811 4.34229 2.58184 2.68093 1.03669 1.20639 1.6294 6.35064 3.19996 3.70153 4.19373 2.65405 1.54019 6.93837 0.883955 10.4561 0.867652 7.53523 0.586505 0.425066 3.6415 2.51783 1.62263 1.52935 2.06568 10.4561 1.53375 1.35207 7.33297 1.62865 0.629288 0.967412 4.17542 1.79528 2.13003 2.37811 7.98952 0.617889 8.76945 6.63007 2.7206 2.36572 1.21015 0.759033 6.93837 5.99769 5.50269 2.33606 9.23844 0.190734 4.92991 3.71799 0.379832 1.73786 0.680592 2.32303 3.47541 3.58033 0.399353 1.03676 7.10919 1.33302 3.52455 5.35196 3.295 7.34206 3.79637 2.02262 3.46266 4.58106 3.01689 3.11932 5.32288 1.63045 1.11159 8.57683 4.20176 0.174899 11.1695 1.71011 4.11482 7.53957 2.68093 1.16426 5.07515 4.61423 2.82277 2.99334 3.25366 7.33297 6.1397 1.14414 4.51994 0.493118 7.19888 2.21899 0.992898 2.43184 4.32577 0.637566 10.6793 0.80395 0.992898 0.703646 8.59581 1.77468 6.46814 5.14 0.862115 5.70334 1.52238 0.575067 6.71586 5.43832 4.83745 1.50176 3.94194 2.85343 4.59053 2.65281 0.435979 4.89111 0.683637 4.83053 2.44578 4.10807 0.22365 1.95234 7.13715 2.41577 3.70153 1.11994 2.69073 3.1749 2.90941 5.73442 3.68682 6.23725 2.60232 3.53284 0.780975 5.90908 3.73818 3.53663 2.93261 1.25981 2.15273 6.1406 2.40128 3.47541 1.37222 1.32818 1.76022 6.60998 4.01374 2.02211 5.13605 0.730734 4.69869 4.52871 2.04338 2.27484 3.92002 0.931135 0.885665 8.86002 1.54864 2.3655 5.90208 3.49915 5.7157 4.7374 2.6419 8.59581 2.48672 3.08998 6.50632 1.12674 1.31472 1.04284 4.32577 1.44545 3.28339 6.00069 0.779863 2.54958 0.861771 3.0348 0.855269 2.37811 4.69356 4.95967 2.3422 3.46375 3.97711 4.96515 2.24756 6.97321 1.4075 1.43941 2.45993 7.52983 1.22496 10.3012 4.10807 5.19888 5.90208 2.83564 0.612649 5.67526 0.787913 4.5745 0.836509 2.19098 5.01507 2.87414 6.16249 0.275299 2.23483 3.96311 1.44769 1.72642 2.27484 9.99019 1.31472 9.47223 1.05515 0.266632 1.24125 9.1992 1.98537 2.16843 0.68385 8.00867 0.898404 5.51014 2.89204 4.59915 5.36504 0.992401 5.7971 1.70589 0.430515 5.45329 4.57837 5.05855 3.57431 1.1381 2.64756 1.42323 7.00391 1.33446 7.56289 3.94442 4.54034 5.2286 5.72325 1.16517 4.53108 1.26951 4.28817 2.96551 5.49187 5.0936 1.98537 1.22189 0.926336 7.90778 1.32818 3.76359 3.4759 4.47821 0.590167 5.40493 3.55034 3.19502 3.8658 4.84447 4.30162 5.30932 3.65563 3.3499 0.437686 0.201377 4.54034 1.605 1.53349 2.75519 2.58645 5.66747 2.63448 5.63101 4.54319 5.27938 2.69428 2.59939 4.87638 0.768184 6.6889 2.40915 8.98183 2.14004 0.35684 6.17395 1.45999 6.96955 5.37965 5.36071 0.612649 0.509148 6.93973 2.31071 0.958661 0.931135 5.89276 1.50973 5.43974 2.78407 3.25958 4.40257 6.20605 1.23394 0.438544 0.174899 2.58184 4.71895 3.67049 9.45502 1.72954 7.02961 0.989494 0.508628 3.61075 2.18581 1.38778 1.48481 0.443669 6.51025 0.67249 5.7157 0.703646 2.21899 4.65006 2.91778 0.586505 3.75046 5.52327 7.98058 4.47821 4.99204 1.26474 4.01704 0.475344 1.07818 4.22621 5.07912 4.92991 2.62618 2.377 0.268986 3.38192 3.2601 3.13888 1.68542 8.98183 0.95335 5.99769 1.54019 2.47964 0.412305 0.965603 8.78806 1.12301 0.665363 2.71153 3.10918 1.14208 4.00648 5.94071 5.19211 2.63827 0.404806 3.75046 7.53523 2.72771 1.14871 0.934254 0.475344 4.23707 1.14208 5.56485 1.23394 6.94747 0.900385 0.765022 4.88294 2.8791 0.568503 1.24761 5.31842 1.69488 1.50674 2.36616 6.79597 0.353957 8.15232 0.57696 0.639639 7.00391 3.12963 5.89197 6.84053 6.34738 1.44514 3.89957 0.670315 0.490198 3.76431 8.15232 4.33081 1.62084 0.689643 6.09701 0.680644 3.64538 4.45552 3.86083 4.2233 4.89084 7.4953 1.0175 7.34206 1.63681 3.61943 0.900385 4.43907 1.21882 2.99822 6.47266 2.57445 0.591229 0.888336 6.41104 2.62026 1.17999 0.836509 1.03731 4.84588 0.538884 6.66631 5.13853 6.17308 0.36614 2.99822 0.924986 2.23528 0.898301 0.683225 3.00409 0.830319 5.86747 3.01889 7.11455 5.70334 2.21832 2.90138 0.552768 3.13706 6.391 0.54029 2.75641 4.7869 2.48672 2.43184 0.80395 2.61405 2.63199 6.78038 5.74802 4.85943 0.521796 8.11584 5.89276 3.92002 0.266632 0.410076 4.42825 1.46271 5.58472 6.31381 0.399353 7.92696 0.889228 4.40993 0.735328 2.61042 1.77487 3.61184 8.14988 2.09395 3.78076 2.82275 1.51948 4.00648 4.23707 4.01704 6.31363 5.36071 1.50799 0.309379 2.63199 2.90721 5.67526 3.19321 6.24895 5.14264 2.58237 4.00364 0.275299 2.45019 4.53428 0.831012 5.44591 2.88498 7.06245 1.64727 6.15187 1.59109 0.136782 7.70794 1.96974 3.22498 5.36504 7.05446 4.42563 0.645518 4.92282 3.79695 1.23996 0.385186 9.45502 2.16401 0.536331 1.27829 6.65474 2.02525 1.20643 6.83832 3.94573 1.02076 1.27115 0.787942 4.1519 2.05636 1.03076 6.9558 0.587583 4.31622 2.81432 2.23447 3.58033 2.40128 3.78598 1.57313 7.92696 4.92324 5.56518 3.72845 2.2856 4.44252 5.79315 1.06318 2.3642 3.54679 0.547308 0.251156 3.8277 6.96796 9.58328 1.30434 5.94655 2.62618 0.190734 0.769258 0.73509 9.25094 3.57843 0.596117 2.377 5.94655 4.66599 2.24886 0.645518 4.01623 4.287 0.576477 7.82183 0.258205 6.68184 2.44587 3.04742 4.83745 6.33112 2.20848 2.99202 6.9558 0.806747 6.70228 0.504665 3.64194 1.9186 3.65615 1.61223 0.906014 1.1528 1.2469 1.07136 5.15424 2.2969 6.01533 0.22365 2.83564 2.3655 0.989038 2.58645 3.16015 1.62924 5.3361 5.57631 0.375333 3.1749 2.18746 1.46271 4.17983 3.9835 6.43779 4.33081 0.69467 4.53428 2.55121 3.07184 0.768184 4.37695 0.35684 6.88157 3.931 2.11627 4.20347 3.71799 5.07912 5.23055 4.08151 6.62083 2.57432 1.50674 0.396994 5.46793 2.16442 2.87414 1.18003 2.62381 3.57404 3.91125 2.17875 6.25744 0.898404 3.22498 2.91392 7.53957 3.65064 1.38482 4.96515 1.84983 1.03669 3.50188 5.97666 2.67489 7.86852 1.9556 6.08169 2.41962 3.65615 2.37038 0.575067 3.04742 1.53171 9.31572 0.854949 1.74846 0.773005 6.96796 0.509249 7.473 1.1528 3.51007 1.79528 7.79971 2.04338 0.515949 0.860733 2.61072 3.38505 0.420649 0.493118 1.04284 9.99019 1.48923 6.31381 1.0695 0.74899 1.88648 1.02431 4.62265 0.485787 1.69128 4.28776 5.19211 0.867652 1.27323 0.470802 2.67489 4.02531 2.70265 7.35688 0.386716 5.43387 0.625579 1.10834 3.00387 6.85838 3.79116 4.82892 2.08269 1.22496 3.58132 1.74846 6.22702 5.52756 1.25907 6.63007 3.19704 1.91277 1.85399 10.0971 4.54319 0.971626 4.66894 2.83997 2.83183 1.34336 0.526907 0.714087 0.744665 2.01987 3.13706 4.08406 6.93973 4.5745 7.3162 0.620326 0.649283 5.19638 1.03731 2.90941 0.375333 2.83764 1.08411 0.958693 3.4696 4.09861 0.208076 1.39755 5.85358 3.81415 8.26583 2.09999 6.52833 0.616132 4.3669 0.715088 3.13888 2.71997 0.435979 2.78237 7.13715 1.67604 3.27873 1.70734 4.60398 0.521796 1.43265 6.4476 4.03002 1.33017 6.60998 3.66156 6.54429 0.438475 1.08453 3.63979 2.24756 1.38482 0.824741 8.80561 0.509249 3.8277 6.95627 3.02995 1.7866 0.861771 4.17514 3.94194 6.82074 0.647379 4.89491 4.84447 3.44781 1.2638 3.8658 2.17875 6.67833 2.49368 3.931 4.22621 0.596117 0.717662 0.584022 3.55034 4.23463 4.46722 8.12431 0.965603 1.52623 1.789 4.25115 7.36862 4.3254 1.63728 2.38033 2.22323 2.91077 0.73509 5.72631 4.69904 2.60232 1.13219 8.10673 1.44545 4.45475 4.66086 2.23447 8.03741 0.926336 1.07818 0.934254 1.0799 7.26845 0.949693 1.04366 0.792191 6.84053 1.03593 3.50833 0.98255 4.51059 4.59811 3.34209 6.07167 6.87761 2.02457 0.526859 5.23055 1.69488 2.98542 0.396994 5.99743 0.526859 0.0586141 6.22702 0.854949 1.43596 2.61042 1.58166 3.08487 4.08151 0.768486 6.51829 0.898301 4.53419 0.665363 8.28084 2.38954 7.97125 3.48445 3.14384 6.19851 2.98542 5.31842 1.95929 2.93921 5.46793 2.18051 4.20176 1.64609 1.40208 2.45991 1.88648 0.960082 4.61423 0.0586141 5.99743 3.57404 1.24832 0.38922 5.52756 4.89111 2.71997 3.2601 6.20496 2.8002 5.6302 2.02262 1.81445 5.14264 0.653709 0.0158769 7.98952 3.46375 2.23466 2.25103 6.29263 0.142602 3.64042 0.668651 4.54676 3.03298 6.1034 3.20458 2.23483 4.00364 0.904523 6.48302 1.52518 6.87761 1.77516 4.54621 4.66086 3.6522 0.210426 5.23452 2.26059 2.91392 1.96974 1.03041 8.06217 5.73442 4.09861 6.1782 1.25602 5.04025 1.51603 1.28754 5.43974 0.568503 4.54225 1.18003 1.72642 4.83266 5.52327 0.404806 0.978413 1.18517 10.3762 2.89743 5.97163 1.27829 3.20307 4.54676 3.16015 2.75519 0.416751 3.61184 2.24256 0.811131 5.48643 4.67372 4.3669 1.35693 7.06245 4.87859 0.850593 0.637566 1.41875 1.95974 3.2945 6.52833 1.11994 3.19996 3.00693 2.82277 0.960082 0.74899 9.01278 2.62026 0.889628 6.62083 3.08487 11.0544 2.69073 9.01278 1.0695 5.58472 2.18746 4.47994 1.62263 6.3456 0.730734 0.958661 7.77031 0.717662 3.57843 4.36015 0.504665 0.195287 5.51014 6.25744 3.91343 6.32983 0.493573 1.68235 6.46814 2.46965 2.10589 6.1034 2.63237 1.06318 0.687929 5.98156 0.0158769 7.54981 4.97166 2.57445 3.39928 0.629288 1.62924 5.48643 4.90731 2.38033 4.04799 5.2286 5.66747 0.989038 1.54864 7.11106 0.468096 0.58694 1.1942 1.21213 2.86528 5.15424 1.19385 1.79068 6.44328 6.95627 0.251156 0.191734 2.45993 3.16588 4.99142 1.32852 6.6889 3.07184 0.917557 7.07477 0.43285 9.25094 2.91077 0.217081 5.7923 2.55366 0.433943 4.31622 2.65904 3.78598 6.1406 0.888336 4.18929 0.489489 4.66804 2.11698 0.649283 8.31668 1.33971 0.889228 1.57313 2.65904 0.587583 2.99202 7.93967 0.699353 1.83027 2.02027 0.93305 4.2233 0.917082 5.48934 6.84413 7.26845 4.7568 9.60329 1.86873 2.16401 3.67049 2.30843 3.45267 6.13689 1.09401 4.95967 5.69911 1.61223 5.85638 4.03002 1.29565 1.2405 2.8322 2.67348 5.72631 0.769258 9.23844 6.25765 1.40208 5.09696 5.66693 3.11932 5.17399 2.04218 2.01504 2.41688 1.25554 2.3642 2.63237 3.03298 3.20307 0.536331 1.86873 0.899045 5.90137 1.68235 1.10778 6.83832 0.333867 5.65281 5.14 2.78262 6.6019 2.04298 1.72954 4.10993 4.1519 3.9503 1.52623 0.412305 7.7838 5.80508 4.822 1.98921 1.45999 5.01507 0.744665 0.509148 0.368861 6.85855 0.815232 2.04218 2.85382 7.57021 0.485998 1.50799 5.37965 2.32296 2.8431 0.52808 1.16426 10.6131 4.26514 5.56485 3.10918 4.03093 3.02995 4.99142 1.31278 3.50188 0.368147 1.53375 0.883955 0.759033 0.856535 2.80437 1.4679 2.8706 0.958693 6.21637 3.5669 1.5154 5.67893 0.256646 0.680644 6.366 4.76788 2.48557 8.70729 2.41688 0.972914 7.36862 3.44413 0.368713 5.85358 2.34282 1.00357 6.54429 3.64538 0.256646 0.347975 1.64727 1.35693 0.616132 3.2945 5.09053 5.20371 4.54225 2.8791 1.90377 3.45267 0.688408 1.44963 2.46309 1.35935 7.79447 1.89736 6.51025 1.26951 7.17582 1.22409 0.838303 1.75679 1.63348 5.13853 0.995345 1.78751 3.58947 3.33281 0.590167 1.2638 8.45541 0.489489 8.66754 0.746067 2.49182 2.95869 0.38397 4.82892 0.633171 3.78076 0.834808 3.2915 3.44399 6.75708 1.2763 6.97321 3.63979 6.76288 1.57178 0.787942 6.65344 1.0415 0.647379 3.19502 0.584022 3.9503 0.143792 5.27938 0.714087 7.34925 8.80012 1.22409 1.75679 10.9966 1.2469 7.473 0.893476 1.1337 3.02705 4.59598 4.22744 2.02525 2.23056 3.08827 5.73999 0.689643 4.4624 0.587553 1.86858 3.00387 0.38397 2.44578 3.7307 0.683754 2.5458 3.49915 5.19888 0.833686 9.60329 1.34697 7.05446 3.16576 0.362771 1.11159 4.63287 1.86503 2.54328 4.30162 4.89491 1.0415 3.38505 6.74436 1.44963 0.443669 6.13536 1.23015 2.23466 2.3422 1.09401 1.37441 1.03041 7.70794 6.1397 1.35207 0.368147 7.86852 0.470802 2.33762 2.80703 3.33281 0.808953 2.13874 4.23463 5.40493 3.54679 5.90137 5.62457 0.765022 3.61943 0.449245 3.12963 1.42323 3.93833 2.50745 2.41549 8.33823 0.420649 6.13536 4.65006 7.19888 0.625579 7.16175 1.789 4.90731 0.811131 5.69168 2.28221 5.234 1.67636 0.217081 2.22323 6.23725 1.56813 6.16993 2.25103 1.23015 0.136782 4.59915 2.60787 0.838303 8.80012 1.33054 1.19385 1.07136 10.9966 0.258205 5.43832 0.603986 5.7923 1.67636 7.05402 0.746522 0.416751 1.53349 2.03928 4.89084 0.93305 3.36589 8.14988 1.58362 1.13219 4.54621 0.559915 3.7482 7.56289 0.856535 5.50269 0.95335 3.05594 3.89957 2.55746 0.824741 5.43387 0.27639 2.48557 4.25115 7.16175 4.53419 7.11455 1.07483 4.03093 2.71153 5.41441 0.925229 2.13527 3.08998 4.7869 0.606848 5.5692 6.29263 6.16993 1.86858 7.01784 3.34741 0.534791 6.85838 0.35904 6.48302 1.57783 4.7374 0.67249 1.89736 1.66817 0.647012 6.88157 2.14004 1.68542 0.715088 4.67372 2.88498 2.13003 3.51007 0.906014 5.69911 4.69356 4.42948 4.28817 0.995345 2.23528 3.6602 0.448477 4.71237 1.092 2.40479 3.79695 4.99629 4.51059 0.545279 0.688408 2.30843 4.71895 4.34229 5.85638 6.01533 1.75211 4.01374 1.33017 4.18929 0.591229 4.97166 1.34714 1.15501 8.66754 3.91125 2.26059 3.4951 1.90461 6.67833 2.54328 1.27553 2.26406 1.85399 1.43655 5.67258 0.628657 5.30932 0.385186 4.22744 2.72813 3.57257 1.68777 11.1695 0.438544 1.57861 2.95639 7.11106 8.86002 0.939966 4.57837 3.89621 2.29153 2.36572 4.02266 0.539268 2.85343 4.17514 2.54958 8.53122 1.97441 1.86649 1.70589 2.40293 3.46266 5.6302 0.142602 5.5692 3.86266 0.709727 1.34714 7.54981 7.27433 5.26029 1.79068 1.33054 7.34925 0.526907 1.02076 6.53229 1.91413 1.27553 1.86503 4.90202 1.95234 5.3361 4.04799 1.63728 1.36114 2.28202 1.67604 1.20835 8.26583 0.973772 2.8322 7.9522 1.27115 4.90202 4.63287 6.65344 2.56746 5.52769 3.22601 0.971626 5.63101 4.59053 0.539268 1.87166 4.30488 5.52891 1.07483 3.01889 1.40281 4.287 3.33924 2.72771 4.26514 6.75672 2.99334 3.00693 6.35064 1.98672 5.93513 0.834808 2.09395 3.36589 2.02027 3.38022 3.50833 6.23881 1.96677 8.93818 3.53284 4.69904 2.67348 0.973772 3.81415 0.368713 2.85766 3.86266 0.606848 1.56813 3.9167 6.72544 2.64756 6.52248 0.680592 3.17251 3.93833 2.13527 5.49497 1.57861 0.885665 2.5458 1.55277 6.50632 0.696102 7.77031 2.31071 4.08406 0.552768 4.76771 1.24788 1.34697 4.7568 1.0799 1.14871 3.33924 4.01623 4.42563 5.09696 1.64609 8.57683 0.362771 2.25351 4.92324 1.29349 0.98255 8.93818 2.89992 5.04025 5.20371 0.545279 0.553079 8.89062 1.21882 0.513152 4.40257 5.59509 0.490198 3.06506 4.46722 2.13874 4.21208 6.30797 0.918621 0.600404 2.78262 2.88474 1.54106 0.559915 1.77516 6.07167 2.64825 8.58267 1.90714 4.24262 3.91343 0.42323 6.63919 4.76788 2.46628 3.08827 2.95869 6.41104 8.31668 0.620326 0.75109 3.6602 0.924986 0.309379 0.485998 1.36304 4.19373 2.41577 1.25602 0.297336 1.32028 2.08384 6.78038 2.16442 2.93921 0.536144 3.9835 2.45019 6.16249 2.62381 10.3762 10.1999 1.24832 1.87166 8.53122 0.779863 0.37359 5.41441 2.75641 0.986666 2.90428 7.82183 2.84969 1.68533 5.59397 2.51528 3.53663 4.20343 1.78751 0.29745 1.22189 9.1992 1.57783 0.904523 5.44591 3.35405 1.41875 1.77468 2.6419 3.16588 1.43941 3.98501 1.69128 5.97666 1.31278 4.72838 4.40993 1.33971 1.32267 1.863 4.822 0.600404 2.76484 6.36377 2.10727 6.6019 0.893476 7.79971 4.17542 3.46302 6.28031 1.90714 1.94472 10.0971 2.26406 1.91413 0.788846 4.11656 3.20431 2.89743 0.668651 0.720197 0.268986 2.40915 4.99454 3.62017 3.02705 1.36304 10.6131 3.25366 6.75672 1.6294 3.25958 6.43813 0.832513 2.40774 5.59509 1.70618 4.99629 4.92282 2.24886 2.90428 0.913422 0.341787 7.98058 4.83266 1.44769 5.99777 4.94887 3.12167 3.0348 1.7866 3.09999 0.687929 5.79315 0.57696 3.76431 6.30797 0.952172 5.90908 0.803661 0.776464 6.34738 0.792191 1.20639 1.84983 3.97711 1.2763 0.945562 1.15778 0.877362 1.06405 2.04298 2.10727 1.10932 2.38954 0.660183 0.661589 1.92501 7.02961 4.99454 6.17395 4.37695 4.87638 0.609865 5.33869 0.992401 0.939966 1.08331 2.64825 6.54674 1.62865 4.51994 3.75986 0.641536 1.9185 0.333867 1.20643 2.00998 1.63348 1.1337 6.28031 3.31207 6.17308 2.46628 6.366 6.09701 5.73999 1.863 1.50475 4.40213 1.83418 2.32296 6.96955 1.98921 3.05594 8.78806 8.12431 3.06506 0.670315 1.21744 2.19412 3.48445 2.53984 1.33302 1.0175 8.89062 3.79172 5.74802 2.08384 2.52576 5.72325 4.42948 2.40828 7.4953 2.03928 1.605 3.94442 3.7482 1.54106 4.27351 8.28084 1.12301 0.838679 8.00867 1.04366 9.24198 1.77666 1.91867 0.666115 0.335009 6.33112 1.03076 0.191734 9.58328 0.773005 3.58132 7.52983 0.860733 10.1163 0.425066 2.91778 0.341787 1.43074 1.35935 6.03734 4.11482 1.43001 0.780975 2.85766 3.44413 3.66156 3.65064 1.05515 10.6914 3.7307 4.83053 2.78237 0.410076 0.952172 4.21208 0.808953 3.58947 4.20343 3.73818 1.9185 7.3621 2.21832 0.862115 5.65281 0.683637 6.20496 3.38192 0.720197 3.64042 2.10589 1.078 4.57245 3.6522 4.45475 0.855269 3.12167 4.44252 0.538884 5.21796 4.66804 0.633171 3.79116 0.534791 1.42633 5.234 0.578073 1.32616 7.07477 0.772229 7.05402 3.20431 2.23056 6.65474 5.97163 0.794122 6.54674 0.42323 2.46965 1.52238 0.54029 4.46898 1.30286 4.36015 4.66599 1.30434 0.43285 2.38648 3.64194 1.17999 11.0544 1.58166 0.735328 4.72838 5.80508 2.19098 1.32267 7.93967 2.20848 0.335009 7.42078 1.50475 5.99777 3.96311 3.20458 0.35904 5.60141 0.0944129 0.474982 3.4951 5.23452 1.76546 0.517348 7.16658 2.05636 7.7838 2.47964 2.65405 2.06568 2.00998 5.35196 0.608313 2.76484 0.918621 3.34209 4.61062 4.84588 5.19638 2.11698 5.21796 4.18248 6.79597 1.04431 7.01784 0.587553 1.44514 0.353957 8.33823 0.170304 1.53171 8.80561 2.55746 9.47223 1.12674 1.55277 0.683754 10.6914 3.295 4.61062 2.02457 1.52518 4.57245 0.547308 0.449245 1.63681 1.0349 1.9556 2.44587 2.90029 6.15187 0.347975 5.67893 0.850593 3.20099 4.30488 0.986666 2.61405 10.6793 3.98501 1.4075 2.3583 0.978413 2.63827 4.28776 1.68777 5.95874 0.578073 2.28221 3.68682 1.43001 1.71011 0.641536 1.70647 4.76771 2.90138 7.3621 2.61072 6.03734 2.46309 6.74436 1.25178 5.52769 1.61945 1.16517 2.52576 1.32028 8.22138 4.60398 5.22158 0.368861 1.50973 8.11584 1.20982 8.06217 1.37441 1.29565 6.4476 3.92894 2.82275 6.75708 0.8078 1.10834 5.69168 2.24256 3.17251 7.10919 4.82942 2.50745 2.33762 1.27323 1.52935 4.47994 0.696102 6.60065 1.0349 1.5154 6.63919 2.49182 3.89088 6.08169 2.28202 6.09605 5.64478 3.27873 6.3456 2.51783 4.82618 4.69869 2.37038 1.9186 2.38648 2.55366 0.603986 6.71586 0.29745 8.45541 3.44781 0.201377 5.23459 2.96551 3.94573 1.10778 0.493573 4.36368 0.788846 6.53229 2.372 4.58106 2.40293 5.7971 5.33869 0.794122 5.29565 5.48934 4.8447 1.38778 4.94887 5.60141 1.66817 7.79447 1.43074 0.36614 3.31207 3.46302 0.967412 3.39928 6.47266 2.80703 6.60065 1.24788 1.70647 3.75986 1.14414 4.45552 5.09053 1.95974 3.35405 0.831012 0.69467 0.52808 3.30897 1.77666 2.42925 5.32288 2.18051 5.07515 2.81432 0.433943 2.15273 7.90778 8.03741 2.70375 6.31363 1.26474 1.78706 5.05855 0.639639 0.803661 1.25981 0.889628 6.66631 1.42633 3.34741 1.04431 2.36616 2.57432 0.709727 6.72544 1.16678 0.806747 2.41962 3.89088 0.746067 1.15501 1.70734 5.64478 1.78635 6.85855 5.22158 0.515949 4.52871 4.82618 3.6415 10.1163 4.24262 4.11656 4.36368 6.32983 5.23459 0.437686 5.82297 0.610259 5.49187 3.01689 2.372 1.30286 0.967307 2.85382 5.17399 0.746522 0.772229 0.917557 2.55121 0.647012 1.59109 2.90029 6.68184 3.57257 1.77003 2.69428 1.32852 1.32616 5.95874 1.1381 2.406 3.76359 1.37222 2.32303 6.52248 3.4759 2.406 3.57431 1.78706 4.99204 
</DataArray>
<DataArray type="Float64" Name="wall variable 0" format="ascii">