<VTKFile type="UnstructuredGrid" version="0.1">
<UnstructuredGrid>
<Piece  NumberOfPoints="    2489" NumberOfCells="     415">
<Points>
<DataArray type="Float64" NumberOfComponents="3" format="ascii">
33.3009 -30.9928 0.0
32.6262 -31.8563 0.0
37.4488 -35.9189 0.0
39.2271 -34.525 0.0
39.1595 -28.9275 0.0
36.9649 -29.6937 0.0
23.379 36.2304 0.0
22.3006 36.1032 0.0
21.9284 33.7574 0.0
21.6649 30.6577 0.0
22.1996 30.2233 0.0
25.9545 30.141 0.0
26.4087 31.2 0.0
28.5483 -21.1699 0.0
28.251 -17.5444 0.0
22.0609 -19.9697 0.0
21.3854 -21.5725 0.0
22.1373 -22.5912 0.0
-1.84064 18.2642 0.0
-5.93016 15.2593 0.0
-5.13227 12.3549 0.0
-0.931107 15.3057 0.0
0.0952509 16.2723 0.0
57.8101 -7.93989 0.0
57.6587 -7.46508 0.0
51.2584 -5.95618 0.0
50.4788 -6.91859 0.0
52.056 -10.012 0.0
56.7014 -9.29555 0.0
13.0462 -20.3614 0.0
11.2226 -19.1613 0.0
4.5556 -20.6946 0.0
4.17596 -21.3843 0.0
6.24234 -23.3049 0.0
-34.2331 -3.32331 0.0
-35.0058 -2.78458 0.0
-38.3097 -2.57038 0.0
-37.3473 -7.76742 0.0
-34.1074 -10.8639 0.0
-33.5978 -11.1427 0.0
-32.6151 -10.871 0.0
13.7213 -20.0034 0.0
15.3504 -17.5184 0.0
12.8996 -12.9118 0.0
9.42304 -13.7895 0.0
11.6486 -18.6796 0.0
13.4723 -19.8796 0.0
-33.5709 30.6379 0.0
-31.5653 36.7061 0.0
-31.5636 37.8005 0.0
-31.8985 39.1083 0.0
-33.2459 39.227 0.0
-34.3046 38.1785 0.0
-35.2591 36.0436 0.0
17.4559 -38.6257 0.0
13.6256 -38.2698 0.0
13.0031 -38.6823 0.0
12.5897 -41.6998 0.0
14.1374 -43.0969 0.0
17.3325 -42.9141 0.0
-58.4545 -13.5257 0.0
-55.2965 -14.0779 0.0
-50.6025 -9.32128 0.0
-49.2708 -7.89838 0.0
-49.5329 -7.6084 0.0
-55.9887 -9.13222 0.0
-59.4251 -10.2686 0.0
-41.3333 -16.0508 0.0
-45.8564 -13.7917 0.0
-47.1778 -15.3145 0.0
-47.2361 -18.3247 0.0
-46.3819 -21.305 0.0
-46.2208 -21.379 0.0
-54.2783 -19.1708 0.0
-54.4279 -15.6795 0.0
-55.4814 -14.7294 0.0
-58.6395 -14.1771 0.0
-59.19 -15.7432 0.0
-58.7958 -20.2197 0.0
-58.4417 -20.926 0.0
-11.5007 -9.98606 0.0
-12.0728 -12.6151 0.0
-7.26252 -14.6071 0.0
-5.9749 -13.2722 0.0
-6.52101 -11.0633 0.0
34.7386 -7.53243 0.0
37.215 -3.56308 0.0
36.8108 -3.14832 0.0
33.2591 -2.74869 0.0
32.8096 -3.23521 0.0
28.7989 -7.4841 0.0
28.6057 -8.65602 0.0
28.74 -9.10825 0.0
-14.5605 -33.4881 0.0
-15.7962 -33.5027 0.0
-19.758 -34.5749 0.0
-19.2489 -37.6452 0.0
-16.5368 -39.8379 0.0
-16.29 -39.8537 0.0
-20.3986 51.8613 0.0
-21.4575 51.6974 0.0
-22.5038 45.7648 0.0
-20.9433 45.2281 0.0
-17.8164 45.5725 0.0
-17.228 49.0825 0.0
-19.0172 51.3376 0.0
-41.1764 18.6866 0.0
-43.4248 18.2307 0.0
-43.5952 17.8359 0.0
-44.6541 14.1703 0.0
-42.1708 11.9292 0.0
-40.3067 12.375 0.0
40.4774 -6.24361 0.0
39.6139 -4.67278 0.0
38.4165 -3.68279 0.0
37.6596 -3.67194 0.0
35.1832 -7.64129 0.0
34.5334 -11.1437 0.0
34.1656 44.5049 0.0
35.3688 44.9063 0.0
33.5112 49.2382 0.0
30.4951 50.4323 0.0
29.1113 50.4008 0.0
27.344 49.5116 0.0
52.3436 27.3571 0.0
52.6336 27.4636 0.0
52.6778 27.9206 0.0
52.5378 28.4822 0.0
50.6968 30.8488 0.0
48.7541 31.7801 0.0
44.8251 30.0801 0.0
43.9966 28.9316 0.0
-14.6554 23.6816 0.0
-14.7918 23.8251 0.0
-17.5217 23.8794 0.0
-20.7531 19.2484 0.0
-21.4253 18.187 0.0
-21.1623 15.8718 0.0
-19.425 15.4027 0.0
28.1923 28.3362 0.0
30.9714 30.4648 0.0
29.3326 35.849 0.0
26.9233 31.0892 0.0
26.4691 30.0302 0.0
39.3277 19.8204 0.0
40.8744 20.4851 0.0
41.2824 24.8596 0.0
41.3045 25.5677 0.0
40.7974 26.6445 0.0
38.3343 27.4062 0.0
37.5042 26.8804 0.0
36.8266 25.1096 0.0
44.1551 -33.8781 0.0
45.0684 -31.9889 0.0
46.8106 -28.0235 0.0
46.7024 -27.4343 0.0
41.5044 -27.8656 0.0
-40.0307 18.8929 0.0
-40.8132 18.6605 0.0
-39.9435 12.349 0.0
-35.3002 12.742 0.0
-38.4226 28.461 0.0
-38.8211 29.4353 0.0
-41.5716 28.1651 0.0
-45.6488 26.1258 0.0
-46.4657 25.4532 0.0
-46.2973 23.3401 0.0
-44.3675 21.2448 0.0
-51.0783 26.7666 0.0
-48.6938 26.9321 0.0
-48.7191 30.8012 0.0
-49.4905 31.9912 0.0
-52.0272 32.5808 0.0
-53.5882 31.3396 0.0
58.4334 -17.4581 0.0
57.6178 -16.6628 0.0
50.9721 -18.3002 0.0
50.6256 -18.9919 0.0
50.5264 -23.1308 0.0
53.3883 -23.6979 0.0
26.9323 -48.4211 0.0
30.6682 -45.1151 0.0
27.0514 -43.1616 0.0
24.1971 -44.3316 0.0
24.5674 -47.6899 0.0
25.4286 -48.6856 0.0
-44.8223 0.689117 0.0
-45.9655 2.09232 0.0
-51.853 4.20541 0.0
-52.445 0.706049 0.0
-49.0128 -1.97013 0.0
6.29527 38.7958 0.0
3.57385 40.2081 0.0
1.93664 39.341 0.0
-3.10493 33.6822 0.0
-2.12193 33.1691 0.0
8.7798 23.9667 0.0
8.25711 23.1471 0.0
7.56566 15.8616 0.0
8.24704 15.5939 0.0
8.69769 15.8734 0.0
11.3923 19.1704 0.0
11.813 22.0693 0.0
10.7224 23.7649 0.0
8.73693 37.7383 0.0
6.47098 38.6123 0.0
-1.94622 32.9856 0.0
-0.42601 31.8146 0.0
1.11035 32.2994 0.0
7.51449 36.5507 0.0
-28.8596 -30.1481 0.0
-29.4381 -29.5266 0.0
-30.6687 -29.3761 0.0
-34.1445 -32.6429 0.0
-34.8275 -34.6235 0.0
-33.1385 -36.308 0.0
-31.0766 -37.8912 0.0
49.4897 -36.0915 0.0
49.5348 -35.7435 0.0
45.3255 -32.589 0.0
44.4122 -34.4782 0.0
43.9303 -35.7009 0.0
48.5964 -38.9357 0.0
-4.53594 33.7082 0.0
-3.52196 33.6953 0.0
1.51961 39.3541 0.0
-4.75378 39.2201 0.0
-4.20013 -62.5875 0.0
-1.83487 -61.5058 0.0
-5.95262 -53.0782 0.0
-6.19625 -53.0925 0.0
-7.18629 -58.3157 0.0
-6.45261 -62.2231 0.0
-6.10243 -62.4318 0.0
-22.2554 26.2325 0.0
-22.9655 26.3185 0.0
-25.394 25.8895 0.0
-24.8689 21.8815 0.0
-22.296 18.7361 0.0
-21.9022 18.4868 0.0
-21.2299 19.5481 0.0
48.5466 -24.4221 0.0
49.8265 -23.3273 0.0
49.9257 -19.1883 0.0
44.4371 -20.7922 0.0
41.2733 -22.5033 0.0
44.4023 30.5282 0.0
48.3313 32.2282 0.0
47.3613 34.2736 0.0
44.8942 37.2874 0.0
41.2103 35.8471 0.0
40.3094 35.3944 0.0
42.217 32.9071 0.0
-50.7455 18.1951 0.0
-47.0315 22.949 0.0
-47.1999 25.0621 0.0
-48.4278 25.7138 0.0
-54.8465 18.9663 0.0
23.4536 -44.3327 0.0
19.8092 -46.0378 0.0
17.4967 -50.2115 0.0
24.0068 -47.8337 0.0
23.6364 -44.4754 0.0
-46.639 12.2054 0.0
-46.0325 13.4637 0.0
-51.2019 14.8336 0.0
-54.7722 10.9694 0.0
-52.3526 8.7039 0.0
-49.1467 9.5328 0.0
7.78388 36.3686 0.0
1.37973 32.1173 0.0
7.96478 31.6202 0.0
9.08306 32.2752 0.0
22.2527 2.00032 0.0
21.8195 2.40956 0.0
16.2887 -1.45668 0.0
16.6537 -3.84372 0.0
17.7563 -4.42839 0.0
20.3373 -2.80016 0.0
7.70478 -12.3022 0.0
8.48119 -12.5175 0.0
17.0635 -6.14474 0.0
17.0742 -5.12951 0.0
15.9716 -4.54484 0.0
15.1325 -4.63321 0.0
7.9609 -10.1493 0.0
28.6055 39.5672 0.0
21.9289 42.5416 0.0
21.534 37.2776 0.0
22.3942 36.762 0.0
23.4726 36.8893 0.0
28.7332 37.709 0.0
-6.37061 -35.066 0.0
-6.99046 -35.3977 0.0
-5.5622 -41.5529 0.0
-1.40053 -37.6435 0.0
21.4936 -15.1095 0.0
19.2059 -13.8281 0.0
15.8723 -17.6312 0.0
14.2432 -20.1163 0.0
14.443 -20.6162 0.0
16.1345 -20.8024 0.0
28.8479 13.2635 0.0
30.9006 8.40739 0.0
33.2254 9.60258 0.0
36.7785 12.3998 0.0
36.8245 12.6811 0.0
36.0851 14.953 0.0
-49.5973 -3.30572 0.0
-49.4499 -2.21714 0.0
-52.8821 0.459033 0.0
-54.1717 0.382348 0.0
-57.1442 -0.340359 0.0
-57.7483 -1.64845 0.0
8.43291 -51.8033 0.0
6.76564 -48.2648 0.0
1.23869 -50.1168 0.0
3.6971 -51.815 0.0
7.79219 -52.569 0.0
-16.3161 44.2424 0.0
-11.0539 47.909 0.0
-13.0814 50.8295 0.0
-16.6914 49.0231 0.0
-17.2798 45.5131 0.0
-28.445 27.4064 0.0
-30.5072 25.8953 0.0
-27.498 20.8412 0.0
-25.3044 22.0395 0.0
-25.8295 26.0475 0.0
-26.8553 27.3485 0.0
-45.1547 14.2519 0.0
-44.0958 17.9175 0.0
-50.5057 17.147 0.0
-50.8843 15.2557 0.0
-45.7149 13.8859 0.0
20.7711 20.5964 0.0
19.9205 20.4041 0.0
17.129 16.595 0.0
19.9923 12.6864 0.0
22.1562 13.809 0.0
24.2432 15.6423 0.0
21.789 19.9565 0.0
32.434 0.995403 0.0
32.9899 0.0743286 0.0
39.8416 5.31144 0.0
40.6587 6.90496 0.0
38.5415 8.63029 0.0
34.5401 4.02263 0.0
14.9098 -4.36754 0.0
9.06051 -2.20121 0.0
6.81026 -6.97638 0.0
7.73824 -9.88364 0.0
20.8596 -2.78574 0.0
23.2866 -4.00722 0.0
26.4326 -5.10181 0.0
26.7104 -1.7318 0.0
26.8554 1.8101 0.0
25.5929 2.40874 0.0
24.0083 2.33161 0.0
22.775 2.01473 0.0
33.4805 -13.1572 0.0
33.9211 -11.5952 0.0
34.5709 -8.09276 0.0
28.5724 -9.66858 0.0
28.3994 -10.6435 0.0
28.3152 -13.7582 0.0
29.1185 -14.515 0.0
32.745 -13.93 0.0
-31.0325 -38.6516 0.0
-33.0943 -37.0684 0.0
-33.4426 -41.4268 0.0
-29.4181 -44.7009 0.0
-28.7494 -41.8622 0.0
25.4583 -54.0806 0.0
24.2608 -51.7839 0.0
19.4016 -54.8696 0.0
19.6857 -57.1361 0.0
26.2811 -55.6621 0.0
-4.81798 20.8399 0.0
-7.28506 20.5305 0.0
-11.7184 13.3094 0.0
-11.0571 12.0014 0.0
-9.18963 13.3972 0.0
37.076 12.0486 0.0
33.5229 9.25137 0.0
34.4444 4.41673 0.0
38.4458 9.02439 0.0
-33.6451 4.23628 0.0
-34.1512 3.72642 0.0
-34.6582 -2.15331 0.0
-33.8854 -2.69204 0.0
-28.8103 -2.96893 0.0
-28.3981 -1.92001 0.0
-29.4147 0.593532 0.0
-5.47203 3.8549 0.0
-5.98812 0.522597 0.0
-0.911224 -3.22316 0.0
-0.630137 -3.05238 0.0
0.1909 -0.530338 0.0
-1.99299 3.38419 0.0
-3.40734 4.26912 0.0
24.6023 14.9037 0.0
22.5153 13.0704 0.0
23.9995 3.36844 0.0
25.5841 3.44557 0.0
25.0664 13.6155 0.0
24.9527 14.8083 0.0
-19.9033 52.6719 0.0
-18.5219 52.1482 0.0
-10.4162 57.5217 0.0
-11.4223 59.4979 0.0
-13.965 59.7114 0.0
-14.7655 59.5831 0.0
-21.2968 -45.5795 0.0
-20.3054 -45.3435 0.0
-16.8683 -40.3763 0.0
-19.5804 -38.1835 0.0
-24.0735 -40.6466 0.0
-18.9997 -23.8285 0.0
-18.1634 -25.3587 0.0
-17.2246 -25.3242 0.0
-15.7413 -22.7715 0.0
-16.0234 -19.1632 0.0
-16.3012 -18.724 0.0
-18.3973 -17.8401 0.0
-21.8864 35.9942 0.0
-21.8007 33.9096 0.0
-20.6294 33.388 0.0
-17.776 32.6012 0.0
-16.4468 33.7258 0.0
-16.716 36.8012 0.0
39.0887 -3.07576 0.0
40.2861 -4.06576 0.0
47.3344 -1.56306 0.0
47.9019 2.41331 0.0
47.9446 2.91736 0.0
43.4403 0.958195 0.0
-39.3926 -11.8871 0.0
-45.4098 -11.9842 0.0
-45.5548 -13.4283 0.0
-41.0317 -15.6874 0.0
-39.5675 -15.9163 0.0
-45.5137 26.6933 0.0
-41.4365 28.7326 0.0
-38.3211 36.1108 0.0
-40.0381 35.2346 0.0
-31.0402 37.4542 0.0
-31.0419 36.3598 0.0
-28.4986 28.1927 0.0
-26.9089 28.1347 0.0
-24.9601 32.0383 0.0
-27.5307 34.5234 0.0
0.56694 53.0779 0.0
-0.0979585 52.8264 0.0
0.712121 47.865 0.0
4.38678 47.0194 0.0
4.568 50.7353 0.0
1.93698 59.0827 0.0
6.78848 56.6106 0.0
11.4238 55.4978 0.0
9.35509 60.3832 0.0
5.33725 61.2719 0.0
1.96361 59.7478 0.0
1.80407 59.2824 0.0
43.6056 1.57028 0.0
48.1099 3.52944 0.0
49.1659 5.24143 0.0
48.8265 7.22537 0.0
45.5992 8.3738 0.0
42.7448 7.12884 0.0
-46.8808 -21.759 0.0
[...]
<CellData Scalars="cell variable 4" Vectors="cell vector">
<DataArray type="Float64" NumberOfComponents="3" Name="cell vector" format="ascii">
0 0 0
0 0 0
0 0 0
0 0 0
0 0 0
0 0 0
0 0 0
0 0 0
0 0 0
0 0 0
0 0 0
0 0 0
0 0 0
0 0 0
0 0 0
0 0 0
0 0 0
0 0 0
0 0 0
0 0 0
0 0 0
0 0 0
0 0 0
0 0 0
0 0 0
0 0 0
0 0 0
0 0 0
0 0 0
0 0 0
0 0 0
0 0 0
0 0 0
0 0 0
0 0 0
0 0 0
0 0 0
0 0 0
0 0 0
0 0 0
0 0 0
0 0 0
0 0 0
0 0 0
0 0 0
0 0 0
0 0 0
0 0 0
0 0 0
0 0 0
0 0 0
0 0 0
0 0 0
0 0 0
0 0 0
0 0 0
0 0 0
0 0 0
0 0 0
0 0 0
0 0 0
0 0 0
0 0 0
0 0 0
0 0 0
0 0 0
0 0 0
0 0 0
0 0 0
0 0 0
0 0 0
0 0 0
0 0 0
0 0 0
0 0 0
0 0 0
0 0 0
0 0 0
0 0 0
0 0 0
0 0 0
0 0 0
0 0 0
0 0 0
0 0 0
0 0 0
0 0 0
0 0 0
0 0 0
0 0 0
0 0 0
0 0 0
0 0 0
0 0 0
0 0 0
0 0 0
0 0 0
0 0 0
0 0 0
0 0 0
0 0 0
0 0 0
0 0 0
0 0 0
0 0 0
0 0 0
0 0 0
0 0 0
0 0 0
0 0 0
0 0 0
0 0 0
0 0 0
0 0 0
0 0 0
0 0 0
0 0 0
0 0 0
0 0 0
0 0 0
0 0 0
0 0 0
0 0 0
0 0 0
0 0 0
0 0 0
0 0 0
0 0 0
0 0 0
0 0 0
0 0 0
0 0 0
0 0 0
0 0 0
0 0 0
0 0 0
0 0 0
0 0 0
0 0 0
0 0 0
0 0 0
0 0 0
0 0 0
0 0 0
0 0 0
0 0 0
0 0 0
0 0 0
0 0 0
0 0 0
0 0 0
0 0 0
0 0 0
0 0 0
0 0 0
0 0 0
0 0 0
0 0 0
0 0 0
0 0 0
0 0 0
0 0 0
0 0 0
0 0 0
0 0 0
0 0 0
0 0 0
0 0 0
0 0 0
0 0 0
0 0 0
0 0 0
0 0 0
0 0 0
0 0 0
0 0 0
0 0 0
0 0 0
0 0 0
0 0 0
0 0 0
0 0 0
0 0 0
0 0 0
0 0 0
0 0 0
0 0 0
0 0 0
0 0 0
0 0 0
0 0 0
0 0 0
0 0 0
0 0 0
0 0 0
0 0 0
0 0 0
0 0 0
0 0 0
0 0 0
0 0 0
0 0 0
0 0 0
0 0 0
0 0 0
0 0 0
0 0 0
0 0 0
0 0 0
0 0 0
0 0 0
0 0 0
0 0 0
0 0 0
0 0 0
0 0 0
0 0 0
0 0 0
0 0 0
0 0 0
0 0 0
0 0 0
0 0 0
0 0 0
0 0 0
0 0 0
0 0 0
0 0 0
0 0 0
0 0 0
0 0 0
0 0 0
0 0 0
0 0 0
0 0 0
0 0 0
0 0 0
0 0 0
0 0 0
0 0 0
0 0 0
0 0 0
0 0 0
0 0 0
0 0 0
0 0 0
0 0 0
0 0 0
0 0 0
0 0 0
0 0 0
0 0 0
0 0 0
0 0 0
0 0 0
0 0 0
0 0 0
0 0 0
0 0 0
0 0 0
0 0 0
0 0 0
0 0 0
0 0 0
0 0 0
0 0 0
0 0 0
0 0 0
0 0 0
0 0 0
0 0 0
0 0 0
0 0 0
0 0 0
0 0 0
0 0 0
0 0 0
0 0 0
0 0 0
0 0 0
0 0 0
0 0 0
0 0 0
0 0 0
0 0 0
0 0 0
0 0 0
0 0 0
0 0 0
0 0 0
0 0 0
0 0 0
0 0 0
0 0 0
0 0 0
0 0 0
0 0 0
0 0 0
0 0 0
0 0 0
0 0 0
0 0 0
0 0 0
0 0 0
0 0 0
0 0 0
0 0 0
0 0 0
0 0 0
0 0 0
0 0 0
0 0 0
0 0 0
0 0 0
0 0 0
0 0 0
0 0 0
0 0 0
0 0 0
0 0 0
0 0 0
0 0 0
0 0 0
0 0 0
0 0 0
0 0 0
0 0 0
0 0 0
0 0 0
0 0 0
0 0 0
0 0 0
0 0 0
0 0 0
0 0 0
0 0 0
0 0 0
0 0 0
0 0 0
0 0 0
0 0 0
0 0 0
0 0 0
0 0 0
0 0 0
0 0 0
0 0 0
0 0 0
0 0 0
0 0 0
0 0 0
0 0 0
0 0 0
0 0 0
0 0 0
0 0 0
0 0 0
0 0 0
0 0 0
0 0 0
0 0 0
0 0 0
0 0 0
0 0 0
0 0 0
0 0 0
0 0 0
0 0 0
0 0 0
0 0 0
0 0 0
0 0 0
0 0 0
0 0 0
0 0 0
0 0 0
0 0 0
0 0 0
0 0 0
0 0 0
0 0 0
0 0 0
0 0 0
0 0 0
0 0 0
0 0 0
0 0 0
0 0 0
0 0 0
0 0 0
0 0 0
0 0 0
0 0 0
0 0 0
0 0 0
0 0 0
0 0 0
0 0 0
0 0 0
0 0 0
0 0 0
0 0 0
0 0 0
0 0 0
0 0 0
0 0 0
0 0 0
0 0 0
0 0 0
0 0 0
0 0 0
0 0 0
0 0 0
0 0 0
0 0 0
</DataArray>
<DataArray type="Float64" Name="cell vector length" format="ascii">
0 0 0 0 0 0 0 0 0 0 0 0 0 0 0 0 0 0 0 0 0 0 0 0 0 0 0 0 0 0 0 0 0 0 0 0 0 0 0 0 0 0 0 0 0 0 0 0 0 0 0 0 0 0 0 0 0 0 0 0 0 0 0 0 0 0 0 0 0 0 0 0 0 0 0 0 0 0 0 0 0 0 0 0 0 0 0 0 0 0 0 0 0 0 0 0 0 0 0 0 0 0 0 0 0 0 0 0 0 0 0 0 0 0 0 0 0 0 0 0 0 0 0 0 0 0 0 0 0 0 0 0 0 0 0 0 0 0 0 0 0 0 0 0 0 0 0 0 0 0 0 0 0 0 0 0 0 0 0 0 0 0 0 0 0 0 0 0 0 0 0 0 0 0 0 0 0 0 0 0 0 0 0 0 0 0 0 0 0 0 0 0 0 0 0 0 0 0 0 0 0 0 0 0 0 0 0 0 0 0 0 0 0 0 0 0 0 0 0 0 0 0 0 0 0 0 0 0 0 0 0 0 0 0 0 0 0 0 0 0 0 0 0 0 0 0 0 0 0 0 0 0 0 0 0 0 0 0 0 0 0 0 0 0 0 0 0 0 0 0 0 0 0 0 0 0 0 0 0 0 0 0 0 0 0 0 0 0 0 0 0 0 0 0 0 0 0 0 0 0 0 0 0 0 0 0 0 0 0 0 0 0 0 0 0 0 0 0 0 0 0 0 0 0 0 0 0 0 0 0 0 0 0 0 0 0 0 0 0 0 0 0 0 0 0 0 0 0 0 0 0 0 0 0 0 0 0 0 0 0 0 0 0 0 0 0 0 0 0 0 0 0 0 0 0 0 0 0 0 0 0 0 0 0 0 0 0 0 0 0 0 0 0 0 0 0 0 0 0 0 0 0 0 0 0 0 0 0 0 0 0 0 0 0 0 
</DataArray>
<DataArray type="Float64" Name="cell variable 4" format="ascii">
0.316217 0.434405 0.657465 1.07467 0.249242 0.94865 0.542818 0.94865 0.371127 0.399988 0.23011 0.479217 0.23011 1.04461 0.573608 0.66381 0.334198 0.495708 0.573608 0.161465 0.27464 0.99432 0.511974 0.511974 0.118662 0.495708 0.393381 0.179448 0.0824302 0.163146 0.332003 0.626025 0.980966 0.626025 0.437452 0.118662 0.36504 0.184973 0.673042 0.313432 0.252014 0.179448 0.187543 0.179448 0.626025 1.10185 1.11547 0.434405 0.514292 0.657465 0.848855 0.23011 0.442722 0.33356 0.673042 0.179448 1.06245 0.736473 1.11547 0.912892 0.573608 0.136507 0.187543 1.07467 0.736473 0.542818 1.12037 0.848855 0.130161 0.393247 0.631062 0.503886 0.45141 0.542818 0.153908 0.371127 0.36504 0.0505895 0.45141 0.23011 0.442722 0.708918 0.495708 0.790107 0.118662 0.399988 1.04461 1.10185 1.14226 0.371127 0.184973 0.708918 0.36504 0.334198 0.980966 0.0978407 0.118662 0.919422 0.503886 0.163146 0.503886 1.04461 0.249242 0.313432 0.631062 0.919422 0.479217 0.23011 0.434405 0.912892 0.542818 0.790107 0.763876 0.673042 0.184059 0.334198 0.542818 0.657465 1.11547 0.789941 0.393247 0.153908 0.399988 0.343308 0.393381 0.673042 0.32239 0.573608 0.99432 0.514292 0.514292 0.153908 0.789941 0.393381 0.66381 0.136507 0.50937 0.789941 1.04461 0.789941 0.790107 1.00681 1.12037 0.393247 0.187543 0.980966 0.66381 0.99432 0.32239 0.848855 0.511974 0.980966 0.313432 0.919422 1.00681 0.161465 0.23011 0.790107 0.542818 0.23011 1.07467 0.94865 0.848855 1.06245 0.511974 0.763876 0.657465 0.0505895 0.184973 0.36504 0.27464 0.184973 0.573608 0.371127 0.163146 0.313432 1.00681 1.00681 0.343308 0.187543 1.12037 0.179448 1.00681 0.657465 0.442722 0.437452 0.657465 1.11547 0.313432 0.136507 0.23011 0.0646441 1.07467 0.399988 0.50937 0.789941 0.94865 0.0773391 0.8063 0.0773391 0.790107 0.393247 0.161465 0.657465 0.631062 0.50937 0.45141 0.708918 0.763876 0.442722 0.514292 0.673042 0.631062 0.495708 0.249242 0.153908 0.316217 0.136507 0.184973 1.07467 0.252014 0.316217 0.434405 0.0824302 0.343308 0.8063 0.511974 0.332003 0.0978407 0.763876 0.316217 0.90618 0.27464 0.0505895 1.04461 0.0646441 1.10185 0.479217 0.0976075 0.631062 0.184059 0.23011 0.343308 0.32239 0.32239 0.399988 0.90618 0.736473 0.153908 0.0505895 1.10185 0.393247 0.626025 0.36504 0.316217 0.763876 1.10185 0.27464 0.442722 0.437452 0.32239 0.514292 0.184059 0.45141 0.36504 0.27464 0.0978407 0.912892 0.437452 0.919422 1.11547 0.789941 0.136507 0.542818 0.503886 0.163146 0.136507 0.631062 0.184973 0.0505895 0.187543 0.736473 0.8063 0.912892 0.249242 0.631062 0.00760007 0.343308 0.50937 1.00681 0.343308 0.23011 0.94865 0.0978407 0.332003 0.00760007 0.66381 0.184973 0.66381 0.673042 0.912892 0.790107 0.153908 0.179448 0.0646441 0.118662 0.33356 0.313432 0.161465 0.90618 0.631062 0.542818 1.12037 1.07467 0.912892 0.399988 0.130161 1.11547 0.980966 0.8063 0.0824302 0.32239 0.161465 0.399988 0.332003 0.316217 0.542818 1.14226 0.573608 0.33356 0.163146 0.66381 0.708918 0.252014 0.626025 0.479217 0.90618 0.495708 0.36504 0.118662 0.542818 0.249242 0.130161 0.393381 0.99432 1.06245 0.187543 0.848855 0.33356 0.434405 0.657465 0.573608 0.919422 0.442722 0.399988 0.252014 0.514292 0.8063 0.495708 1.14226 0.32239 0.343308 0.313432 0.919422 0.919422 0.763876 0.848855 0.313432 0.789941 1.11547 0.980966 0.442722 0.434405 1.10185 0.23011 0.790107 0.153908 0.184059 0.673042 0.626025 0.66381 0.511974 1.06245 0.514292 0.0976075 0.343308 0.252014 0.249242 1.14226 0.631062 0.626025 1.04461 0.179448 0.371127 0.334198 0.919422 0.66381 0.511974 1.06245 0.161465 1.07467 0.252014 0.789941 0.442722 0.673042 0.371127 0.27464 0.848855 0.542818 0.252014 0.573608 0.249242 0.763876 1.00681 0.912892 
</DataArray>
<DataArray type="Float64" Name="cell variable 5" format="ascii">
0.0909148 0.0503251 0.0226112 0.00858434 0.138655 0.0109898 0.0328244 0.0109898 0.0676886 0.0588268 0.158855 0.0417277 0.158855 0.00908091 0.0294962 0.0221905 0.082177 0.0391044 0.0294962 0.277231 0.117059 0.0100133 0.0367488 0.0367488 0.415271 0.0391044 0.0606986 0.236958 0.595425 0.273099 0.0831765 0.0248813 0.0102849 0.0248813 0.0496613 0.415271 0.0698059 0.226167 0.021599 0.0923878 0.136034 0.236958 0.221374 0.236958 0.0248813 0.00816951 0.00797274 0.0503251 0.0364304 0.0226112 0.0136882 0.158855 0.0485429 0.0824658 0.021599 0.236958 0.00878122 0.0181031 0.00797274 0.0118572 0.0294962 0.349234 0.221374 0.00858434 0.0181031 0.0328244 0.00790366 0.0136882 0.371169 0.0607373 0.0244954 0.037893 0.0467791 0.0328244 0.296844 0.0676886 0.0698059 0.796223 0.0467791 0.158855 0.0485429 0.0195097 0.0391044 0.0157662 0.415271 0.0588268 0.00908091 0.00816951 0.00760594 0.0676886 0.226167 0.0195097 0.0698059 0.082177 0.0102849 0.510913 0.415271 0.0116913 0.037893 0.273099 0.037893 0.00908091 0.138655 0.0923878 0.0244954 0.0116913 0.0417277 0.158855 0.0503251 0.0118572 0.0328244 0.0157662 0.016849 0.021599 0.227907 0.082177 0.0328244 0.0226112 0.00797274 0.0157727 0.0607373 0.296844 0.0588268 0.0782104 0.0606986 0.021599 0.0877689 0.0294962 0.0100133 0.0364304 0.0364304 0.296844 0.0157727 0.0606986 0.0221905 0.349234 0.0371116 0.0157727 0.00908091 0.0157727 0.0157662 0.00976872 0.00790366 0.0607373 0.221374 0.0102849 0.0221905 0.0100133 0.0877689 0.0136882 0.0367488 0.0102849 0.0923878 0.0116913 0.00976872 0.277231 0.158855 0.0157662 0.0328244 0.158855 0.00858434 0.0109898 0.0136882 0.00878122 0.0367488 0.016849 0.0226112 0.796223 0.226167 0.0698059 0.117059 0.226167 0.0294962 0.0676886 0.273099 0.0923878 0.00976872 0.00976872 0.0782104 0.221374 0.00790366 0.236958 0.00976872 0.0226112 0.0485429 0.0496613 0.0226112 0.00797274 0.0923878 0.349234 0.158855 0.705275 0.00858434 0.0588268 0.0371116 0.0157727 0.0109898 0.62573 0.0151488 0.62573 0.0157662 0.0607373 0.277231 0.0226112 0.0244954 0.0371116 0.0467791 0.0195097 0.016849 0.0485429 0.0364304 0.021599 0.0244954 0.0391044 0.138655 0.296844 0.0909148 0.349234 0.226167 0.00858434 0.136034 0.0909148 0.0503251 0.595425 0.0782104 0.0151488 0.0367488 0.0831765 0.510913 0.016849 0.0909148 0.0120314 0.117059 0.796223 0.00908091 0.705275 0.00816951 0.0417277 0.512105 0.0244954 0.227907 0.158855 0.0782104 0.0877689 0.0877689 0.0588268 0.0120314 0.0181031 0.296844 0.796223 0.00816951 0.0607373 0.0248813 0.0698059 0.0909148 0.016849 0.00816951 0.117059 0.0485429 0.0496613 0.0877689 0.0364304 0.227907 0.0467791 0.0698059 0.117059 0.510913 0.0118572 0.0496613 0.0116913 0.00797274 0.0157727 0.349234 0.0328244 0.037893 0.273099 0.349234 0.0244954 0.226167 0.796223 0.221374 0.0181031 0.0151488 0.0118572 0.138655 0.0244954 0.994257 0.0782104 0.0371116 0.00976872 0.0782104 0.158855 0.0109898 0.510913 0.0831765 0.994257 0.0221905 0.226167 0.0221905 0.021599 0.0118572 0.0157662 0.296844 0.236958 0.705275 0.415271 0.0824658 0.0923878 0.277231 0.0120314 0.0244954 0.0328244 0.00790366 0.00858434 0.0118572 0.0588268 0.371169 0.00797274 0.0102849 0.0151488 0.595425 0.0877689 0.277231 0.0588268 0.0831765 0.0909148 0.0328244 0.00760594 0.0294962 0.0824658 0.273099 0.0221905 0.0195097 0.136034 0.0248813 0.0417277 0.0120314 0.0391044 0.0698059 0.415271 0.0328244 0.138655 0.371169 0.0606986 0.0100133 0.00878122 0.221374 0.0136882 0.0824658 0.0503251 0.0226112 0.0294962 0.0116913 0.0485429 0.0588268 0.136034 0.0364304 0.0151488 0.0391044 0.00760594 0.0877689 0.0782104 0.0923878 0.0116913 0.0116913 0.016849 0.0136882 0.0923878 0.0157727 0.00797274 0.0102849 0.0485429 0.0503251 0.00816951 0.158855 0.0157662 0.296844 0.227907 0.021599 0.0248813 0.0221905 0.0367488 0.00878122 0.0364304 0.512105 0.0782104 0.136034 0.138655 0.00760594 0.0244954 0.0248813 0.00908091 0.236958 0.0676886 0.082177 0.0116913 0.0221905 0.0367488 0.00878122 0.277231 0.00858434 0.136034 0.0157727 0.0485429 0.021599 0.0676886 0.117059 0.0136882 0.0328244 0.136034 0.0294962 0.138655 0.016849 0.00976872 0.0118572 
</DataArray>
<DataArray type="Float64" Name="cell variable 6" format="ascii">
0.0038835 0.000857904 8.84138e-05 5.3719e-06 0.0566856 1.10661e-05 0.000251962 1.10661e-05 0.0019189 0.00127682 0.0671729 0.00051123 0.0671729 6.33494e-06 0.000187165 8.3838e-05 0.00576492 0.000410215 0.000187165 0.298329 0.02163 8.43313e-06 0.00035504 0.00035504 0.533485 0.000410215 0.00151522 0.235078 0.752638 0.294057 0.00364689 0.000115922 9.11938e-06 0.000115922 0.000885689 0.533485 0.0019794 0.208208 7.76673e-05 0.00439847 0.0441278 0.235078 0.185318 0.235078 0.000115922 4.64493e-06 4.32387e-06 0.000857904 0.000349016 8.84138e-05 2.09522e-05 0.0671729 0.000858618 0.00403961 7.76673e-05 0.235078 5.74138e-06 4.69278e-05 4.32387e-06 1.38076e-05 0.000187165 0.432355 0.185318 5.3719e-06 4.69278e-05 0.000251962 4.21468e-06 2.09522e-05 0.477444 0.00202135 0.000110922 0.000380196 0.000696942 0.000251962 0.3398 0.0019189 0.0019794 0.900072 0.000696942 0.0671729 0.000858618 5.81379e-05 0.000410215 3.15261e-05 0.533485 0.00127682 6.33494e-06 4.64493e-06 3.76475e-06 0.0019189 0.208208 5.81379e-05 0.0019794 0.00576492 9.11938e-06 0.674122 0.533485 1.32528e-05 0.000380196 0.294057 0.000380196 6.33494e-06 0.0566856 0.00439847 0.000110922 1.32528e-05 0.00051123 0.0671729 0.000857904 1.38076e-05 0.000251962 3.15261e-05 3.81646e-05 7.76673e-05 0.235443 0.00576492 0.000251962 8.84138e-05 4.32387e-06 3.156e-05 0.00202135 0.3398 0.00127682 0.00310284 0.00151522 7.76673e-05 0.00628005 0.000187165 8.43313e-06 0.000349016 0.000349016 0.3398 3.156e-05 0.00151522 8.3838e-05 0.432355 0.000394946 3.156e-05 6.33494e-06 3.156e-05 3.15261e-05 7.8448e-06 4.21468e-06 0.00202135 0.185318 9.11938e-06 8.3838e-05 8.43313e-06 0.00628005 2.09522e-05 0.00035504 9.11938e-06 0.00439847 1.32528e-05 7.8448e-06 0.298329 0.0671729 3.15261e-05 0.000251962 0.0671729 5.3719e-06 1.10661e-05 2.09522e-05 5.74138e-06 0.00035504 3.81646e-05 8.84138e-05 0.900072 0.208208 0.0019794 0.02163 0.208208 0.000187165 0.0019189 0.294057 0.00439847 7.8448e-06 7.8448e-06 0.00310284 0.185318 4.21468e-06 0.235078 7.8448e-06 8.84138e-05 0.000858618 0.000885689 8.84138e-05 4.32387e-06 0.00439847 0.432355 0.0671729 0.841792 5.3719e-06 0.00127682 0.000394946 3.156e-05 1.10661e-05 0.780596 2.80904e-05 0.780596 3.15261e-05 0.00202135 0.298329 8.84138e-05 0.000110922 0.000394946 0.000696942 5.81379e-05 3.81646e-05 0.000858618 0.000349016 7.76673e-05 0.000110922 0.000410215 0.0566856 0.3398 0.0038835 0.432355 0.208208 5.3719e-06 0.0441278 0.0038835 0.000857904 0.752638 0.00310284 2.80904e-05 0.00035504 0.00364689 0.674122 3.81646e-05 0.0038835 1.4406e-05 0.02163 0.900072 6.33494e-06 0.841792 4.64493e-06 0.00051123 0.67289 0.000110922 0.235443 0.0671729 0.00310284 0.00628005 0.00628005 0.00127682 1.4406e-05 4.69278e-05 0.3398 0.900072 4.64493e-06 0.00202135 0.000115922 0.0019794 0.0038835 3.81646e-05 4.64493e-06 0.02163 0.000858618 0.000885689 0.00628005 0.000349016 0.235443 0.000696942 0.0019794 0.02163 0.674122 1.38076e-05 0.000885689 1.32528e-05 4.32387e-06 3.156e-05 0.432355 0.000251962 0.000380196 0.294057 0.432355 0.000110922 0.208208 0.900072 0.185318 4.69278e-05 2.80904e-05 1.38076e-05 0.0566856 0.000110922 1.00277 0.00310284 0.000394946 7.8448e-06 0.00310284 0.0671729 1.10661e-05 0.674122 0.00364689 1.00277 8.3838e-05 0.208208 8.3838e-05 7.76673e-05 1.38076e-05 3.15261e-05 0.3398 0.235078 0.841792 0.533485 0.00403961 0.00439847 0.298329 1.4406e-05 0.000110922 0.000251962 4.21468e-06 5.3719e-06 1.38076e-05 0.00127682 0.477444 4.32387e-06 9.11938e-06 2.80904e-05 0.752638 0.00628005 0.298329 0.00127682 0.00364689 0.0038835 0.000251962 3.76475e-06 0.000187165 0.00403961 0.294057 8.3838e-05 5.81379e-05 0.0441278 0.000115922 0.00051123 1.4406e-05 0.000410215 0.0019794 0.533485 0.000251962 0.0566856 0.477444 0.00151522 8.43313e-06 5.74138e-06 0.185318 2.09522e-05 0.00403961 0.000857904 8.84138e-05 0.000187165 1.32528e-05 0.000858618 0.00127682 0.0441278 0.000349016 2.80904e-05 0.000410215 3.76475e-06 0.00628005 0.00310284 0.00439847 1.32528e-05 1.32528e-05 3.81646e-05 2.09522e-05 0.00439847 3.156e-05 4.32387e-06 9.11938e-06 0.000858618 0.000857904 4.64493e-06 0.0671729 3.15261e-05 0.3398 0.235443 7.76673e-05 0.000115922 8.3838e-05 0.00035504 5.74138e-06 0.000349016 0.67289 0.00310284 0.0441278 0.0566856 3.76475e-06 0.000110922 0.000115922 6.33494e-06 0.235078 0.0019189 0.00576492 1.32528e-05 8.3838e-05 0.00035504 5.74138e-06 0.298329 5.3719e-06 0.0441278 3.156e-05 0.000858618 7.76673e-05 0.0019189 0.02163 2.09522e-05 0.000251962 0.0441278 0.000187165 0.0566856 3.81646e-05 7.8448e-06 1.38076e-05 
</DataArray>
<DataArray type="Float64" Name="cell variable 7" format="ascii">
0.357275 0.264653 0.176526 0.0863829 0.413855 0.109939 0.214434 0.109939 0.306453 0.285858 0.46057 0.24144 0.46057 0.091923 0.203114 0.174715 0.334908 0.233945 0.203114 0.543895 0.399197 0.10127 0.2268 0.2268 0.633332 0.233945 0.290041 0.481302 0.652741 0.531783 0.340125 0.185875 0.103782 0.185875 0.262734 0.633332 0.311423 0.488241 0.172124 0.360012 0.422896 0.481302 0.511928 0.481302 0.185875 0.0813708 0.0788486 0.264653 0.225806 0.176526 0.129973 0.46057 0.259721 0.337987 0.172124 0.481302 0.0886341 0.15552 0.0788486 0.116913 0.203114 0.58017 0.511928 0.0863829 0.15552 0.214434 0.0779382 0.129973 0.557964 0.288948 0.184332 0.230311 0.255368 0.214434 0.544906 0.306453 0.311423 0.667622 0.255368 0.46057 0.259721 0.162493 0.233945 0.142821 0.633332 0.285858 0.091923 0.0813708 0.0738515 0.306453 0.488241 0.162493 0.311423 0.334908 0.103782 0.570965 0.633332 0.115625 0.230311 0.531783 0.230311 0.091923 0.413855 0.360012 0.184332 0.115625 0.24144 0.46057 0.264653 0.116913 0.214434 0.142821 0.148901 0.172124 0.426674 0.334908 0.214434 0.176526 0.0788486 0.142859 0.288948 0.544906 0.285858 0.329428 0.290041 0.172124 0.347352 0.203114 0.10127 0.225806 0.225806 0.544906 0.142859 0.290041 0.174715 0.58017 0.227704 0.142859 0.091923 0.142859 0.142821 0.0989326 0.0779382 0.288948 0.511928 0.103782 0.174715 0.10127 0.347352 0.129973 0.2268 0.103782 0.360012 0.115625 0.0989326 0.543895 0.46057 0.142821 0.214434 0.46057 0.0863829 0.109939 0.129973 0.0886341 0.2268 0.148901 0.176526 0.667622 0.488241 0.311423 0.399197 0.488241 0.203114 0.306453 0.531783 0.360012 0.0989326 0.0989326 0.329428 0.511928 0.0779382 0.481302 0.0989326 0.176526 0.259721 0.262734 0.176526 0.0788486 0.360012 0.58017 0.46057 0.663687 0.0863829 0.285858 0.227704 0.142859 0.109939 0.646851 0.139181 0.646851 0.142821 0.288948 0.543895 0.176526 0.184332 0.227704 0.255368 0.162493 0.148901 0.259721 0.225806 0.172124 0.184332 0.233945 0.413855 0.544906 0.357275 0.58017 0.488241 0.0863829 0.422896 0.357275 0.264653 0.652741 0.329428 0.139181 0.2268 0.340125 0.570965 0.148901 0.357275 0.118245 0.399197 0.667622 0.091923 0.663687 0.0813708 0.24144 0.58928 0.184332 0.426674 0.46057 0.329428 0.347352 0.347352 0.285858 0.118245 0.15552 0.544906 0.667622 0.0813708 0.288948 0.185875 0.311423 0.357275 0.148901 0.0813708 0.399197 0.259721 0.262734 0.347352 0.225806 0.426674 0.255368 0.311423 0.399197 0.570965 0.116913 0.262734 0.115625 0.0788486 0.142859 0.58017 0.214434 0.230311 0.531783 0.58017 0.184332 0.488241 0.667622 0.511928 0.15552 0.139181 0.116913 0.413855 0.184332 0.695937 0.329428 0.227704 0.0989326 0.329428 0.46057 0.109939 0.570965 0.340125 0.695937 0.174715 0.488241 0.174715 0.172124 0.116913 0.142821 0.544906 0.481302 0.663687 0.633332 0.337987 0.360012 0.543895 0.118245 0.184332 0.214434 0.0779382 0.0863829 0.116913 0.285858 0.557964 0.0788486 0.103782 0.139181 0.652741 0.347352 0.543895 0.285858 0.340125 0.357275 0.214434 0.0738515 0.203114 0.337987 0.531783 0.174715 0.162493 0.422896 0.185875 0.24144 0.118245 0.233945 0.311423 0.633332 0.214434 0.413855 0.557964 0.290041 0.10127 0.0886341 0.511928 0.129973 0.337987 0.264653 0.176526 0.203114 0.115625 0.259721 0.285858 0.422896 0.225806 0.139181 0.233945 0.0738515 0.347352 0.329428 0.360012 0.115625 0.115625 0.148901 0.129973 0.360012 0.142859 0.0788486 0.103782 0.259721 0.264653 0.0813708 0.46057 0.142821 0.544906 0.426674 0.172124 0.185875 0.174715 0.2268 0.0886341 0.225806 0.58928 0.329428 0.422896 0.413855 0.0738515 0.184332 0.185875 0.091923 0.481302 0.306453 0.334908 0.115625 0.174715 0.2268 0.0886341 0.543895 0.0863829 0.422896 0.142859 0.259721 0.172124 0.306453 0.399197 0.129973 0.214434 0.422896 0.203114 0.413855 0.148901 0.0989326 0.116913 
</DataArray>
<DataArray type="Float64" Name="cell variable 8" format="ascii">