<VTKFile type="UnstructuredGrid" version="0.1">
<UnstructuredGrid>
<Piece  NumberOfPoints="    2315" NumberOfCells="     388">
<Points>
<DataArray type="Float64" NumberOfComponents="3" format="ascii">
17.938 -15.8894 0.0
18.4234 -13.0012 0.0
16.8428 -11.7467 0.0
13.8778 -11.1424 0.0
12.1652 -13.4303 0.0
15.4311 -18.4445 0.0
16.4847 -18.329 0.0
22.2961 -23.176 0.0
22.0682 -22.3607 0.0
18.6001 -22.1847 0.0
15.0715 -26.0946 0.0
16.9316 -27.6054 0.0
25.7645 -34.713 0.0
24.823 -38.543 0.0
28.1274 -38.3757 0.0
31.6855 -33.4274 0.0
32.9505 -31.4844 0.0
32.6672 -30.5885 0.0
28.9063 -31.9824 0.0
-44.4651 19.2231 0.0
-41.0809 18.7163 0.0
-38.9003 21.7343 0.0
-38.6125 22.8353 0.0
-42.2457 25.8549 0.0
-43.3856 24.6726 0.0
-44.4161 20.804 0.0
23.3977 -2.7236 0.0
24.356 -4.68112 0.0
27.8938 -3.13222 0.0
28.4031 1.22247 0.0
28.0349 2.00566 0.0
23.6339 2.44881 0.0
28.9149 1.15485 0.0
28.4055 -3.19984 0.0
31.269 -5.08405 0.0
32.8816 -2.40637 0.0
33.5397 -0.568113 0.0
33.019 1.0588 0.0
6.48512 38.8822 0.0
6.8679 38.5668 0.0
10.0136 37.5978 0.0
12.4695 39.474 0.0
13.9244 42.1748 0.0
12.7821 43.1013 0.0
12.4491 43.1657 0.0
-18.6603 -47.8278 0.0
-22.9941 -46.2134 0.0
-26.8171 -48.5118 0.0
-23.1037 -51.1806 0.0
-13.1826 -28.5594 0.0
-15.3142 -31.0785 0.0
-12.92 -34.3106 0.0
-8.93175 -34.9392 0.0
-8.39422 -33.1963 0.0
-25.8981 24.6047 0.0
-26.8167 23.2297 0.0
-26.9097 22.4404 0.0
-23.0638 19.8076 0.0
-19.6734 22.9954 0.0
-19.9247 23.5007 0.0
-45.7083 -30.5015 0.0
-43.538 -26.6399 0.0
-50.0399 -24.4585 0.0
-48.7658 -27.5789 0.0
-15.5923 -12.0643 0.0
-16.35 -7.5985 0.0
-20.9452 -5.79372 0.0
-21.4841 -6.32978 0.0
-22.2983 -9.00146 0.0
-19.738 -10.4202 0.0
-21.1487 29.1908 0.0
-20.4214 29.7243 0.0
-21.473 34.3095 0.0
-23.5927 33.8597 0.0
-25.8015 29.8091 0.0
-24.3694 28.3585 0.0
0.397061 -10.0445 0.0
1.49169 -9.47527 0.0
2.0365 -6.84365 0.0
-1.30065 -3.72896 0.0
-4.81755 -3.48635 0.0
-6.21243 -6.1446 0.0
0.268872 -10.0927 0.0
23.9751 -44.7043 0.0
28.5725 -43.1194 0.0
29.8826 -41.3469 0.0
27.8122 -39.0743 0.0
24.5077 -39.2416 0.0
22.5257 -40.7458 0.0
20.8114 -42.6438 0.0
21.0774 -42.9202 0.0
-28.5321 -6.72297 0.0
-33.4993 -10.6068 0.0
-31.4386 -13.8291 0.0
-30.586 -13.8519 0.0
-27.354 -10.8858 0.0
-10.976 18.5833 0.0
-8.79828 20.2614 0.0
-7.74125 22.5636 0.0
-10.7286 24.2815 0.0
-14.6623 19.4622 0.0
47.6877 -14.8276 0.0
49.4631 -11.9169 0.0
49.4842 -8.21624 0.0
48.2051 -6.00139 0.0
46.9096 -6.5611 0.0
44.8144 -9.1367 0.0
44.6687 -10.4969 0.0
44.367 -13.1848 0.0
-1.90109 54.5811 0.0
2.2452 53.3401 0.0
4.3362 55.2607 0.0
3.07493 56.0216 0.0
-3.28788 56.45 0.0
-4.63739 55.6028 0.0
9.13609 23.9309 0.0
10.9594 21.5772 0.0
14.4709 19.1196 0.0
17.7142 20.9649 0.0
16.7621 22.697 0.0
-40.4696 11.7243 0.0
-40.9801 7.59756 0.0
-37.8988 4.32288 0.0
-35.9643 7.79353 0.0
-37.7862 14.2203 0.0
-39.6105 13.4937 0.0
-38.6617 30.3934 0.0
-39.3166 30.3643 0.0
-42.0091 26.3334 0.0
-38.3759 23.3137 0.0
-37.573 24.2161 0.0
14.6399 17.3065 0.0
12.4633 14.1638 0.0
14.4317 9.76978 0.0
16.7125 8.97066 0.0
17.9784 10.0239 0.0
19.0895 12.4618 0.0
16.1568 15.8093 0.0
35.4764 -30.8674 0.0
36.4653 -31.5491 0.0
43.5572 -24.4917 0.0
43.6571 -22.7397 0.0
41.9433 -22.2226 0.0
-15.0257 59.0097 0.0
-18.3865 56.0167 0.0
-20.0097 53.8575 0.0
-17.323 53.5344 0.0
-13.5107 54.2539 0.0
-13.1073 54.4188 0.0
-13.7599 59.3209 0.0
8.02718 -46.5901 0.0
8.33268 -46.2903 0.0
5.11771 -43.5687 0.0
1.59708 -43.8427 0.0
-0.0131862 -47.415 0.0
-15.7976 9.50707 0.0
-14.8839 11.5495 0.0
-18.5326 15.0406 0.0
-21.5687 12.0446 0.0
-21.1389 9.33563 0.0
53.7135 -14.2643 0.0
52.2822 -13.631 0.0
49.0179 -19.6211 0.0
50.1372 -20.1912 0.0
52.9932 -19.1467 0.0
-46.8369 10.8723 0.0
-41.7399 12.1295 0.0
-46.0885 16.3863 0.0
-47.4745 14.3148 0.0
18.2337 -21.9727 0.0
16.4247 -19.1256 0.0
15.3711 -19.2411 0.0
12.2204 -21.1066 0.0
12.3458 -23.4575 0.0
13.5155 -25.9828 0.0
14.3834 -25.9871 0.0
14.7051 -25.8825 0.0
14.712 48.806 0.0
17.9899 48.3014 0.0
13.8032 53.2203 0.0
9.91232 53.5945 0.0
11.1789 50.9979 0.0
11.6231 50.0981 0.0
-1.38425 15.1809 0.0
5.36282 12.6613 0.0
7.25094 15.6237 0.0
5.86912 17.3126 0.0
2.26719 18.7399 0.0
-1.88709 16.4231 0.0
5.20808 12.2126 0.0
-1.539 14.7322 0.0
-1.73818 9.80734 0.0
1.64235 8.6389 0.0
3.73269 8.43106 0.0
5.24348 11.4793 0.0
-39.7834 -33.8874 0.0
-38.8963 -32.4698 0.0
-40.3449 -29.2937 0.0
-42.6325 -26.7279 0.0
-43.0673 -26.9987 0.0
-45.2375 -30.8602 0.0
-42.0799 -34.0367 0.0
-16.5075 -16.7961 0.0
-13.2285 -20.406 0.0
-9.05705 -17.2329 0.0
-10.6348 -15.5376 0.0
-13.8354 -14.502 0.0
-14.2349 -14.4413 0.0
-14.7432 34.7259 0.0
-12.0609 35.7956 0.0
-10.6942 37.2103 0.0
-17.5335 38.3626 0.0
-18.7277 35.7927 0.0
-44.7853 -11.0249 0.0
-46.2032 -10.0235 0.0
-47.7885 -8.89909 0.0
-49.1153 -10.7513 0.0
-48.6773 -14.4751 0.0
-47.518 -17.3655 0.0
-43.5119 -15.5229 0.0
-2.68665 -29.5044 0.0
-2.04707 -29.6199 0.0
3.17314 -27.2244 0.0
3.20827 -27.0707 0.0
2.95075 -25.6976 0.0
-1.27876 -24.204 0.0
-3.40085 -24.3584 0.0
-2.80963 -29.445 0.0
-25.1559 -12.547 0.0
-27.0756 -11.2875 0.0
-30.3076 -14.2536 0.0
-26.6503 -18.8003 0.0
33.3089 4.95899 0.0
34.2122 5.51184 0.0
35.5887 11.9449 0.0
32.7 12.6203 0.0
31.2601 8.66342 0.0
16.6086 16.0434 0.0
19.5413 12.6959 0.0
23.1743 14.5071 0.0
22.0838 17.3065 0.0
-12.6019 -34.8631 0.0
-12.9928 -35.5391 0.0
-8.43755 -40.572 0.0
-7.54714 -40.7428 0.0
-5.8551 -40.3284 0.0
-5.37838 -37.6943 0.0
-5.66233 -37.4202 0.0
-8.61359 -35.4918 0.0
-42.1237 -37.528 0.0
-42.3657 -34.2773 0.0
-45.5233 -31.1008 0.0
-48.5808 -28.1782 0.0
-46.7762 -32.4078 0.0
-44.7515 -35.2367 0.0
30.5224 -46.1183 0.0
22.6841 -50.1054 0.0
21.4822 -52.5442 0.0
24.3206 -51.7597 0.0
29.6121 -48.8907 0.0
32.5164 -46.2992 0.0
14.0479 -26.7727 0.0
13.1799 -26.7685 0.0
8.81879 -29.3779 0.0
9.78597 -33.0569 0.0
12.5126 -33.4109 0.0
12.9016 -33.2019 0.0
48.4996 17.3625 0.0
47.9976 17.6254 0.0
45.7938 16.9599 0.0
45.8705 12.4583 0.0
46.7937 10.4403 0.0
49.0967 10.0985 0.0
-46.6968 10.416 0.0
-46.4558 6.79038 0.0
-43.2855 5.32401 0.0
-41.5103 7.53662 0.0
-40.9998 11.6633 0.0
-41.5998 11.6732 0.0
8.01864 15.8186 0.0
10.4915 15.1013 0.0
11.9602 14.6569 0.0
14.1368 17.7996 0.0
14.1559 18.7247 0.0
10.6445 21.1823 0.0
10.1537 20.83 0.0
6.63681 17.5076 0.0
41.6382 36.2423 0.0
38.3828 37.8123 0.0
38.3477 35.5145 0.0
39.4043 33.2506 0.0
42.6686 29.3925 0.0
46.1789 27.6294 0.0
45.491 29.5948 0.0
43.769 32.9158 0.0
-11.5146 -55.8595 0.0
-7.04714 -57.9751 0.0
-4.77038 -58.4361 0.0
-1.94162 -57.6005 0.0
-5.30254 -53.4736 0.0
-8.93966 -52.986 0.0
-29.6829 29.7476 0.0
-29.3915 28.6551 0.0
-26.1564 29.9881 0.0
-23.9476 34.0387 0.0
-24.5082 37.639 0.0
-25.5061 37.5097 0.0
-28.3577 -3.47029 0.0
-27.9227 -5.40779 0.0
-22.086 -5.80845 0.0
-21.5471 -5.27239 0.0
-23.0064 -1.2897 0.0
-24.4212 -0.35831 0.0
-25.9832 -1.54476 0.0
-0.879744 -23.7413 0.0
-0.90955 -23.8313 0.0
3.31996 -25.3249 0.0
6.99274 -21.2468 0.0
6.48765 -20.4516 0.0
-0.599128 -22.923 0.0
-3.58764 25.3034 0.0
-7.16395 22.6914 0.0
-8.22099 20.3892 0.0
-5.99187 19.5454 0.0
-4.9072 20.7431 0.0
-1.6739 24.7583 0.0
1.03351 -43.8695 0.0
-0.285983 -43.3556 0.0
-2.09773 -43.1623 0.0
-4.79337 -47.4859 0.0
-1.76124 -48.6843 0.0
-0.576758 -47.4418 0.0
-50.269 9.24311 0.0
-50.6698 7.48841 0.0
-49.1036 4.14162 0.0
-46.9397 6.81363 0.0
-47.1806 10.4393 0.0
-47.8182 13.8817 0.0
-49.4146 12.8212 0.0
5.47835 6.26026 0.0
6.08768 6.08821 0.0
9.63598 5.03269 0.0
11.4824 7.3864 0.0
9.46539 8.77157 0.0
5.86447 11.1249 0.0
4.35368 8.07659 0.0
0.0882736 43.7836 0.0
-4.28099 44.4985 0.0
-4.63549 44.2787 0.0
-5.09805 38.7294 0.0
-3.56763 38.2834 0.0
-2.34791 37.9689 0.0
0.768427 39.445 0.0
0.690011 43.2934 0.0
3.30416 -6.25941 0.0
8.15134 -4.51371 0.0
8.33775 -2.64462 0.0
7.94623 -2.39039 0.0
4.30664 -0.274576 0.0
10.6734 0.326474 0.0
8.95591 -2.60881 0.0
8.7695 -4.4779 0.0
9.54695 -5.2329 0.0
10.807 -5.76568 0.0
12.7312 -6.39419 0.0
15.478 -2.12391 0.0
13.272 -0.627503 0.0
13.2161 -6.52882 0.0
13.3373 -6.88034 0.0
18.7192 -5.74787 0.0
19.6687 -3.1699 0.0
17.1778 -1.6635 0.0
15.963 -2.25854 0.0
-52.9721 -0.60302 0.0
-49.0954 -0.15967 0.0
-49.344 3.13833 0.0
-49.3595 3.5114 0.0
-50.9257 6.8582 0.0
-53.1331 4.80836 0.0
-38.1548 -33.0867 0.0
-39.0419 -34.5043 0.0
-35.03 -38.8735 0.0
-33.7087 -40.3037 0.0
-30.3333 -40.4686 0.0
-31.4181 -37.8815 0.0
-33.2989 -35.4895 0.0
1.48634 -56.2997 0.0
-1.16315 -57.7879 0.0
-3.9919 -58.6235 0.0
-1.73901 -58.8794 0.0
2.11248 -58.34 0.0
5.49711 -56.9487 0.0
27.264 26.5121 0.0
25.756 27.6337 0.0
23.0896 23.9881 0.0
25.3688 21.3608 0.0
27.7972 21.4625 0.0
-14.8338 -5.52635 0.0
-14.0401 -5.22122 0.0
-13.3135 -1.75232 0.0
-15.2779 1.72589 0.0
-18.9009 0.593136 0.0
-19.2826 -0.0532196 0.0
-1.50391 -3.1404 0.0
-0.492557 -0.57576 0.0
-2.97254 1.43894 0.0
-5.79852 2.6121 0.0
-6.86483 -0.849519 0.0
-5.0208 -2.89779 0.0
-20.3167 -38.0459 0.0
-21.1455 -40.6858 0.0
-13.3042 -42.8719 0.0
-13.2642 -41.2739 0.0
-16.5504 -38.8548 0.0
-39.1232 -29.0313 0.0
-39.7355 -29.4194 0.0
-38.2869 -32.5954 0.0
-33.4311 -34.9983 0.0
-31.9812 -32.6138 0.0
34.9899 -21.4852 0.0
34.7971 -20.6035 0.0
32.0781 -21.8097 0.0
29.8177 -24.2568 0.0
28.8919 -27.7425 0.0
29.2913 -30.5104 0.0
16.0585 25.9539 0.0
19.1275 27.4433 0.0
20.5784 30.3425 0.0
18.331 33.0469 0.0
15.7714 32.8767 0.0
14.8008 26.7854 0.0
44.5153 1.71035 0.0
44.3609 2.59395 0.0
41.7442 2.93418 0.0
40.6487 -1.15125 0.0
41.2806 -6.40014 0.0
42.6992 -6.82909 0.0
52.9654 4.05084 0.0
54.2217 0.493733 0.0
56.4083 -1.58371 0.0
56.5171 2.61538 0.0
55.5067 7.76547 0.0
54.5665 10.0847 0.0
52.671 11.3651 0.0
52.5375 7.90902 0.0
-15.7317 47.2159 0.0
-19.008 46.6103 0.0
-20.3179 44.1261 0.0
-20.669 41.2837 0.0
-17.7895 41.9264 0.0
-16.3394 42.9013 0.0
-4.82637 28.6237 0.0
-3.28551 25.8035 0.0
-1.37177 25.2584 0.0
0.425396 25.2069 0.0
-0.390226 28.1042 0.0
-2.42828 30.1916 0.0
38.0437 -42.6526 0.0
41.0345 -40.5635 0.0
44.8191 -36.5354 0.0
45.1201 -35.2077 0.0
42.5668 -34.9756 0.0
37.6547 -41.5968 0.0
-28.3851 -23.9388 0.0
-26.7954 -25.8722 0.0
-19.9696 -22.7186 0.0
-20.2134 -21.6391 0.0
-21.3718 -20.122 0.0
-26.0388 -20.2148 0.0
[...]
<CellData Scalars="cell variable 4" Vectors="cell vector">
<DataArray type="Float64" NumberOfComponents="3" Name="cell vector" format="ascii">
0 0 0
0 0 0
0 0 0
0 0 0
0 0 0
0 0 0
0 0 0
0 0 0
0 0 0
0 0 0
0 0 0
0 0 0
0 0 0
0 0 0
0 0 0
0 0 0
0 0 0
0 0 0
0 0 0
0 0 0
0 0 0
0 0 0
0 0 0
0 0 0
0 0 0
0 0 0
0 0 0
0 0 0
0 0 0
0 0 0
0 0 0
0 0 0
0 0 0
0 0 0
0 0 0
0 0 0
0 0 0
0 0 0
0 0 0
0 0 0
0 0 0
0 0 0
0 0 0
0 0 0
0 0 0
0 0 0
0 0 0
0 0 0
0 0 0
0 0 0
0 0 0
0 0 0
0 0 0
0 0 0
0 0 0
0 0 0
0 0 0
0 0 0
0 0 0
0 0 0
0 0 0
0 0 0
0 0 0
0 0 0
0 0 0
0 0 0
0 0 0
0 0 0
0 0 0
0 0 0
0 0 0
0 0 0
0 0 0
0 0 0
0 0 0
0 0 0
0 0 0
0 0 0
0 0 0
0 0 0
0 0 0
0 0 0
0 0 0
0 0 0
0 0 0
0 0 0
0 0 0
0 0 0
0 0 0
0 0 0
0 0 0
0 0 0
0 0 0
0 0 0
0 0 0
0 0 0
0 0 0
0 0 0
0 0 0
0 0 0
0 0 0
0 0 0
0 0 0
0 0 0
0 0 0
0 0 0
0 0 0
0 0 0
0 0 0
0 0 0
0 0 0
0 0 0
0 0 0
0 0 0
0 0 0
0 0 0
0 0 0
0 0 0
0 0 0
0 0 0
0 0 0
0 0 0
0 0 0
0 0 0
0 0 0
0 0 0
0 0 0
0 0 0
0 0 0
0 0 0
0 0 0
0 0 0
0 0 0
0 0 0
0 0 0
0 0 0
0 0 0
0 0 0
0 0 0
0 0 0
0 0 0
0 0 0
0 0 0
0 0 0
0 0 0
0 0 0
0 0 0
0 0 0
0 0 0
0 0 0
0 0 0
0 0 0
0 0 0
0 0 0
0 0 0
0 0 0
0 0 0
0 0 0
0 0 0
0 0 0
0 0 0
0 0 0
0 0 0
0 0 0
0 0 0
0 0 0
0 0 0
0 0 0
0 0 0
0 0 0
0 0 0
0 0 0
0 0 0
0 0 0
0 0 0
0 0 0
0 0 0
0 0 0
0 0 0
0 0 0
0 0 0
0 0 0
0 0 0
0 0 0
0 0 0
0 0 0
0 0 0
0 0 0
0 0 0
0 0 0
0 0 0
0 0 0
0 0 0
0 0 0
0 0 0
0 0 0
0 0 0
0 0 0
0 0 0
0 0 0
0 0 0
0 0 0
0 0 0
0 0 0
0 0 0
0 0 0
0 0 0
0 0 0
0 0 0
0 0 0
0 0 0
0 0 0
0 0 0
0 0 0
0 0 0
0 0 0
0 0 0
0 0 0
0 0 0
0 0 0
0 0 0
0 0 0
0 0 0
0 0 0
0 0 0
0 0 0
0 0 0
0 0 0
0 0 0
0 0 0
0 0 0
0 0 0
0 0 0
0 0 0
0 0 0
0 0 0
0 0 0
0 0 0
0 0 0
0 0 0
0 0 0
0 0 0
0 0 0
0 0 0
0 0 0
0 0 0
0 0 0
0 0 0
0 0 0
0 0 0
0 0 0
0 0 0
0 0 0
0 0 0
0 0 0
0 0 0
0 0 0
0 0 0
0 0 0
0 0 0
0 0 0
0 0 0
0 0 0
0 0 0
0 0 0
0 0 0
0 0 0
0 0 0
0 0 0
0 0 0
0 0 0
0 0 0
0 0 0
0 0 0
0 0 0
0 0 0
0 0 0
0 0 0
0 0 0
0 0 0
0 0 0
0 0 0
0 0 0
0 0 0
0 0 0
0 0 0
0 0 0
0 0 0
0 0 0
0 0 0
0 0 0
0 0 0
0 0 0
0 0 0
0 0 0
0 0 0
0 0 0
0 0 0
0 0 0
0 0 0
0 0 0
0 0 0
0 0 0
0 0 0
0 0 0
0 0 0
0 0 0
0 0 0
0 0 0
0 0 0
0 0 0
0 0 0
0 0 0
0 0 0
0 0 0
0 0 0
0 0 0
0 0 0
0 0 0
0 0 0
0 0 0
0 0 0
0 0 0
0 0 0
0 0 0
0 0 0
0 0 0
0 0 0
0 0 0
0 0 0
0 0 0
0 0 0
0 0 0
0 0 0
0 0 0
0 0 0
0 0 0
0 0 0
0 0 0
0 0 0
0 0 0
0 0 0
0 0 0
0 0 0
0 0 0
0 0 0
0 0 0
0 0 0
0 0 0
0 0 0
0 0 0
0 0 0
0 0 0
0 0 0
0 0 0
0 0 0
0 0 0
0 0 0
0 0 0
0 0 0
0 0 0
0 0 0
0 0 0
0 0 0
0 0 0
0 0 0
0 0 0
0 0 0
0 0 0
0 0 0
0 0 0
0 0 0
0 0 0
0 0 0
0 0 0
0 0 0
0 0 0
0 0 0
0 0 0
0 0 0
0 0 0
0 0 0
0 0 0
0 0 0
0 0 0
0 0 0
0 0 0
0 0 0
</DataArray>
<DataArray type="Float64" Name="cell vector length" format="ascii">
0 0 0 0 0 0 0 0 0 0 0 0 0 0 0 0 0 0 0 0 0 0 0 0 0 0 0 0 0 0 0 0 0 0 0 0 0 0 0 0 0 0 0 0 0 0 0 0 0 0 0 0 0 0 0 0 0 0 0 0 0 0 0 0 0 0 0 0 0 0 0 0 0 0 0 0 0 0 0 0 0 0 0 0 0 0 0 0 0 0 0 0 0 0 0 0 0 0 0 0 0 0 0 0 0 0 0 0 0 0 0 0 0 0 0 0 0 0 0 0 0 0 0 0 0 0 0 0 0 0 0 0 0 0 0 0 0 0 0 0 0 0 0 0 0 0 0 0 0 0 0 0 0 0 0 0 0 0 0 0 0 0 0 0 0 0 0 0 0 0 0 0 0 0 0 0 0 0 0 0 0 0 0 0 0 0 0 0 0 0 0 0 0 0 0 0 0 0 0 0 0 0 0 0 0 0 0 0 0 0 0 0 0 0 0 0 0 0 0 0 0 0 0 0 0 0 0 0 0 0 0 0 0 0 0 0 0 0 0 0 0 0 0 0 0 0 0 0 0 0 0 0 0 0 0 0 0 0 0 0 0 0 0 0 0 0 0 0 0 0 0 0 0 0 0 0 0 0 0 0 0 0 0 0 0 0 0 0 0 0 0 0 0 0 0 0 0 0 0 0 0 0 0 0 0 0 0 0 0 0 0 0 0 0 0 0 0 0 0 0 0 0 0 0 0 0 0 0 0 0 0 0 0 0 0 0 0 0 0 0 0 0 0 0 0 0 0 0 0 0 0 0 0 0 0 0 0 0 0 0 0 0 0 0 0 0 0 0 0 0 0 0 0 0 0 0 0 0 0 0 0 0 0 0 0 0 0 0 
</DataArray>
<DataArray type="Float64" Name="cell variable 4" format="ascii">
0.316217 0.000510187 7.22055e-10 1.1392e-10 0.249242 0.0032488 1.23542e-08 5.06408e-13 0.000319359 0.000137838 9.78894e-13 0.479217 5.48914e-07 1.04461 2.5153e-11 0.000586701 0.334198 4.77775e-11 2.14504e-13 0.161465 1.34433e-07 1.43573e-10 0.511974 1.79224e-10 2.32146e-14 1.06024e-10 0.393381 8.0853e-13 2.48184e-10 0.163146 9.42051e-13 0.626025 0.980966 1.75394e-12 0.437452 1.19294e-07 4.633e-11 0.184973 0.00760007 4.69927e-06 0.252014 1.1995e-07 1.0791e-13 1.08668e-13 0.000160982 5.75207e-12 8.58362e-10 0.434405 8.1913e-13 9.33834e-14 3.42967e-09 0.23011 0.442722 0.33356 3.05763e-10 1.53946e-11 1.06245 2.68958e-08 1.11547 0.912892 0.573608 3.35388e-12 6.26079e-12 3.62571e-14 1.55471e-05 0.542818 1.12037 6.17036e-10 1.36606e-10 1.97283e-08 4.18495e-05 2.5907e-09 2.35345e-13 5.84028e-11 0.0976075 7.68667e-14 0.000116047 0.0505895 5.96913e-06 1.61534e-05 5.26566e-05 2.73299e-11 5.60239e-07 9.71611e-13 1.81312e-09 8.20491e-13 1.55214e-11 1.10185 1.14226 0.371127 5.12565e-14 0.708918 3.8559e-13 1.82626e-12 4.42555e-05 0.00273317 0.118662 7.85135e-13 2.90644e-14 3.14565e-11 0.503886 5.73e-12 1.68594e-06 4.8591e-12 4.44145e-11 2.814e-10 2.22629e-12 5.76039e-06 3.47057e-13 9.51839e-14 3.83176e-13 1.11565e-11 1.3423e-11 0.673042 3.49399e-07 8.33062e-06 2.42345e-06 6.16323e-05 1.6923e-08 0.789941 6.21845e-13 1.12502e-11 3.37504e-10 4.46645e-09 2.16e-11 0.000425284 6.21089e-10 7.13306e-11 0.99432 5.20703e-14 2.06819e-12 3.18802e-14 5.41779e-08 0.000705084 0.66381 5.50953e-14 5.22026e-13 4.32436e-12 2.10901e-08 1.18023e-09 2.34778e-08 1.00681 7.58754e-07 1.95527e-13 1.73379e-12 2.90155e-14 2.88095e-08 6.97512e-07 3.13132e-09 8.68069e-05 0.0773391 5.37776e-11 0.00151096 0.919422 1.16697e-08 7.29789e-07 1.85341e-12 2.00391e-09 1.12956e-11 0.000237451 3.42138e-05 0.94865 0.848855 2.59037e-13 1.10621e-08 5.78851e-09 0.657465 8.723e-13 6.30556e-13 3.48747e-09 4.14778e-14 1.36504e-12 0.00403603 1.03617e-13 2.4788e-08 3.89469e-09 2.0118e-13 3.72001e-12 0.130161 0.0824302 9.53305e-13 0.179448 2.86502e-13 1.32488e-09 0.00103121 1.89305e-07 1.2938e-10 1.41816e-10 0.313432 0.136507 6.83616e-13 3.01178e-10 1.07467 8.75867e-11 1.36132e-10 2.06659e-11 6.13175e-07 6.80038e-10 1.5044e-05 3.52153e-13 0.790107 2.44056e-08 2.28015e-11 3.58878e-10 1.84661e-13 0.50937 0.45141 3.48316e-07 7.55742e-08 2.44034e-13 0.514292 0.000157331 4.61276e-06 0.495708 1.0952e-09 0.153908 7.50844e-12 4.76435e-12 1.38398e-06 1.23799e-05 7.27365e-13 3.28772e-13 3.34221e-13 0.00145277 3.05783e-14 0.8063 0.000331293 0.332003 2.73979e-13 0.763876 1.76443e-09 0.90618 1.25207e-10 0.187543 8.15157e-13 0.0646441 3.38072e-08 1.14453e-06 0.00370628 0.631062 7.9236e-08 1.73262e-10 0.343308 0.32239 0.000306373 0.399988 5.52696e-11 0.736473 2.24794e-07 5.6859e-12 5.98214e-11 0.393247 9.86599e-09 0.36504 1.60998e-08 1.04772e-07 1.86103e-08 3.09214e-07 0.0097703 1.5272e-11 1.65194e-09 1.09841e-08 0.184059 4.92599e-13 0.000209614 0.27464 0.0978407 0.0505895 2.73299e-11 4.61276e-06 0.000319359 6.80038e-10 5.06408e-13 0.542818 7.29789e-07 4.76435e-12 0.136507 3.49399e-07 0.184973 5.37776e-11 0.187543 3.42138e-05 1.79224e-10 1.73262e-10 5.20703e-14 0.000157331 0.00760007 2.5907e-09 2.16e-11 3.42967e-09 1.14453e-06 0.23011 2.34778e-08 8.15157e-13 4.46645e-09 0.0032488 1.06024e-10 2.24794e-07 1.0952e-09 1.16697e-08 7.9236e-08 1.1995e-07 1.68594e-06 0.179448 9.78894e-13 0.118662 0.000160982 8.723e-13 1.10621e-08 1.61534e-05 0.631062 1.73379e-12 6.13175e-07 7.27365e-13 1.97283e-08 0.153908 5.22026e-13 1.11547 5.50953e-14 5.48914e-07 0.0824302 0.32239 0.161465 2.48184e-10 4.69927e-06 5.75207e-12 3.72001e-12 2.10901e-08 0.00103121 1.36606e-10 6.21845e-13 0.000137838 6.17036e-10 5.26566e-05 3.14565e-11 5.96913e-06 3.48747e-09 0.495708 0.36504 1.55471e-05 2.59037e-13 5.12565e-14 1.18023e-09 1.85341e-12 0.000425284 7.58754e-07 5.6859e-12 0.848855 0.000510187 2.44034e-13 0.657465 0.573608 0.919422 0.442722 0.399988 0.252014 1.55214e-11 1.82626e-12 1.23542e-08 3.09214e-07 0.000237451 0.343308 6.16323e-05 2.814e-10 1.12956e-11 0.763876 9.71611e-13 0.313432 0.789941 1.76443e-09 5.76039e-06 5.78851e-09 0.0773391 1.10185 3.01178e-10 0.790107 1.32488e-09 8.0853e-13 0.673042 0.00370628 0.66381 4.32436e-12 7.85135e-13 0.514292 3.52153e-13 1.65194e-09 3.37504e-10 1.43573e-10 
</DataArray>
<DataArray type="Float64" Name="cell variable 5" format="ascii">
0.0909148 0.999974 1 1 0.138655 0.998946 1 1 0.99999 0.999998 1 0.0417277 1 0.00908091 1 0.999966 0.082177 1 1 0.277231 1 1 0.0367488 1 1 1 0.0606986 1 1 0.273099 1 0.0248813 0.0102849 1 0.0496613 1 1 0.226167 0.994257 1 0.136034 1 1 1 0.999997 1 1 0.0503251 1 1 1 0.158855 0.0485429 0.0824658 1 1 0.00878122 1 0.00797274 0.0118572 0.0294962 1 1 1 1 0.0328244 0.00790366 1 1 1 1 1 1 1 0.512105 1 0.999999 0.796223 1 1 1 1 1 1 1 1 1 0.00816951 0.00760594 0.0676886 1 0.0195097 1 1 1 0.999254 0.415271 1 1 1 0.037893 1 1 1 1 1 1 1 1 1 1 1 1 0.021599 1 1 1 1 1 0.0157727 1 1 1 1 1 0.999982 1 1 0.0100133 1 1 1 1 0.99995 0.0221905 1 1 1 1 1 1 0.00976872 1 1 1 1 1 1 1 0.999999 0.62573 1 0.999772 0.0116913 1 1 1 1 1 0.999994 1 0.0109898 0.0136882 1 1 1 0.0226112 1 1 1 1 1 0.998374 1 1 1 1 1 0.371169 0.595425 1 0.236958 1 1 0.999894 1 1 1 0.0923878 0.349234 1 1 0.00858434 1 1 1 1 1 1 1 0.0157662 1 1 1 1 0.0371116 0.0467791 1 1 1 0.0364304 0.999998 1 0.0391044 1 0.296844 1 1 1 1 1 1 1 0.999789 1 0.0151488 0.999989 0.0831765 1 0.016849 1 0.0120314 1 0.221374 1 0.705275 1 1 0.998628 0.0244954 1 1 0.0782104 0.0877689 0.999991 0.0588268 1 0.0181031 1 1 1 0.0607373 1 0.0698059 1 1 1 1 0.990544 1 1 1 0.227907 1 0.999996 0.117059 0.510913 0.796223 1 1 0.99999 1 1 0.0328244 1 1 0.349234 1 0.226167 1 0.221374 1 1 1 1 0.999998 0.994257 1 1 1 1 0.158855 1 1 1 0.998946 1 1 1 1 1 1 1 0.236958 1 0.415271 0.999997 1 1 1 0.0244954 1 1 1 1 0.296844 1 0.00797274 1 1 0.595425 0.0877689 0.277231 1 1 1 1 1 0.999894 1 1 0.999998 1 1 1 1 1 0.0391044 0.0698059 1 1 1 1 1 0.999982 1 1 0.0136882 0.999974 1 0.0226112 0.0294962 0.0116913 0.0485429 0.0588268 0.136034 1 1 1 1 0.999994 0.0782104 1 1 1 0.016849 1 0.0923878 0.0157727 1 1 1 0.62573 0.00816951 1 0.0157662 1 1 0.021599 0.998628 0.0221905 1 1 0.0364304 1 1 1 1 
</DataArray>
<DataArray type="Float64" Name="cell variable 6" format="ascii">
0.0038835 1.00883 1.00917 1.00917 0.0566856 1.00681 1.00917 1.00917 1.00896 1.00908 1.00917 0.00051123 1.00917 6.33494e-06 1.00917 1.00878 0.00576492 1.00917 1.00917 0.298329 1.00917 1.00917 0.00035504 1.00917 1.00917 1.00917 0.00151522 1.00917 1.00917 0.294057 1.00917 0.000115922 9.11938e-06 1.00917 0.000885689 1.00917 1.00917 0.208208 1.00277 1.00917 0.0441278 1.00917 1.00917 1.00917 1.00907 1.00917 1.00917 0.000857904 1.00917 1.00917 1.00917 0.0671729 0.000858618 0.00403961 1.00917 1.00917 5.74138e-06 1.00917 4.32387e-06 1.38076e-05 0.000187165 1.00917 1.00917 1.00917 1.00916 0.000251962 4.21468e-06 1.00917 1.00917 1.00917 1.00915 1.00917 1.00917 1.00917 0.67289 1.00917 1.0091 0.900072 1.00917 1.00916 1.00914 1.00917 1.00917 1.00917 1.00917 1.00917 1.00917 4.64493e-06 3.76475e-06 0.0019189 1.00917 5.81379e-05 1.00917 1.00917 1.00914 1.00716 0.533485 1.00917 1.00917 1.00917 0.000380196 1.00917 1.00917 1.00917 1.00917 1.00917 1.00917 1.00917 1.00917 1.00917 1.00917 1.00917 1.00917 7.76673e-05 1.00917 1.00917 1.00917 1.00913 1.00917 3.156e-05 1.00917 1.00917 1.00917 1.00917 1.00917 1.00889 1.00917 1.00917 8.43313e-06 1.00917 1.00917 1.00917 1.00917 1.0087 8.3838e-05 1.00917 1.00917 1.00917 1.00917 1.00917 1.00917 7.8448e-06 1.00917 1.00917 1.00917 1.00917 1.00917 1.00917 1.00917 1.00912 0.780596 1.00917 1.00816 1.32528e-05 1.00917 1.00917 1.00917 1.00917 1.00917 1.00902 1.00915 1.10661e-05 2.09522e-05 1.00917 1.00917 1.00917 8.84138e-05 1.00917 1.00917 1.00917 1.00917 1.00917 1.00605 1.00917 1.00917 1.00917 1.00917 1.00917 0.477444 0.752638 1.00917 0.235078 1.00917 1.00917 1.00849 1.00917 1.00917 1.00917 0.00439847 0.432355 1.00917 1.00917 5.3719e-06 1.00917 1.00917 1.00917 1.00917 1.00917 1.00916 1.00917 3.15261e-05 1.00917 1.00917 1.00917 1.00917 0.000394946 0.000696942 1.00917 1.00917 1.00917 0.000349016 1.00907 1.00917 0.000410215 1.00917 0.3398 1.00917 1.00917 1.00917 1.00917 1.00917 1.00917 1.00917 1.00814 1.00917 2.80904e-05 1.00895 0.00364689 1.00917 3.81646e-05 1.00917 1.4406e-05 1.00917 0.185318 1.00917 0.841792 1.00917 1.00917 1.00642 0.000110922 1.00917 1.00917 0.00310284 0.00628005 1.00897 0.00127682 1.00917 4.69278e-05 1.00917 1.00917 1.00917 0.00202135 1.00917 0.0019794 1.00917 1.00917 1.00917 1.00917 1.00014 1.00917 1.00917 1.00917 0.235443 1.00917 1.00904 0.02163 0.674122 0.900072 1.00917 1.00917 1.00896 1.00917 1.00917 0.000251962 1.00917 1.00917 0.432355 1.00917 0.208208 1.00917 0.185318 1.00915 1.00917 1.00917 1.00917 1.00907 1.00277 1.00917 1.00917 1.00917 1.00917 0.0671729 1.00917 1.00917 1.00917 1.00681 1.00917 1.00917 1.00917 1.00917 1.00917 1.00917 1.00917 0.235078 1.00917 0.533485 1.00907 1.00917 1.00917 1.00916 0.000110922 1.00917 1.00917 1.00917 1.00917 0.3398 1.00917 4.32387e-06 1.00917 1.00917 0.752638 0.00628005 0.298329 1.00917 1.00917 1.00917 1.00917 1.00917 1.00849 1.00917 1.00917 1.00908 1.00917 1.00914 1.00917 1.00917 1.00917 0.000410215 0.0019794 1.00916 1.00917 1.00917 1.00917 1.00917 1.00889 1.00917 1.00917 2.09522e-05 1.00883 1.00917 8.84138e-05 0.000187165 1.32528e-05 0.000858618 0.00127682 0.0441278 1.00917 1.00917 1.00917 1.00917 1.00902 0.00310284 1.00913 1.00917 1.00917 3.81646e-05 1.00917 0.00439847 3.156e-05 1.00917 1.00917 1.00917 0.780596 4.64493e-06 1.00917 3.15261e-05 1.00917 1.00917 7.76673e-05 1.00642 8.3838e-05 1.00917 1.00917 0.000349016 1.00917 1.00917 1.00917 1.00917 
</DataArray>
<DataArray type="Float64" Name="cell variable 7" format="ascii">
0.357275 0.805214 0.978092 0.988818 0.413855 0.731648 0.944982 0.994685 0.786592 0.818915 0.993483 0.24144 0.895885 0.091923 0.989084 0.789622 0.334908 0.989411 0.998841 0.543895 0.953353 0.985799 0.2268 0.985845 1.00092 0.987264 0.290041 0.998525 0.983128 0.531783 0.992442 0.185875 0.103782 0.990411 0.262734 0.924335 0.988661 0.488241 0.695937 0.865788 0.422896 0.91048 0.997008 1.00172 0.804465 0.987088 0.980133 0.264653 0.991034 0.999503 0.963699 0.46057 0.259721 0.337987 0.973562 0.99226 0.0886341 0.95837 0.0788486 0.116913 0.203114 0.995708 0.986261 1.00151 0.87201 0.214434 0.0779382 0.968141 0.97158 0.947968 0.828165 0.967203 0.99644 0.984507 0.58928 1.00361 0.821805 0.667622 0.876672 0.855098 0.808066 0.980165 0.910934 0.997889 0.951959 1.00169 0.991878 0.0813708 0.0738515 0.306453 1.00149 0.162493 0.994971 0.992078 0.85435 0.786302 0.633332 0.999409 1.00014 0.994724 0.230311 0.992247 0.922196 0.993424 0.98225 0.982487 0.998131 0.912087 1.00344 1.00249 0.999787 0.987627 0.99489 0.172124 0.887905 0.869271 0.886845 0.804393 0.966248 0.142859 0.996819 0.999395 0.974211 0.96428 0.987688 0.777768 0.969761 0.985824 0.10127 0.997763 0.994612 1.00237 0.955764 0.790771 0.174715 1.00165 0.994101 0.996076 0.945385 0.96829 0.922008 0.0989326 0.900971 0.996832 0.995481 1.00397 0.95287 0.921346 0.970096 0.812727 0.646851 0.979721 0.723507 0.115625 0.962378 0.91184 0.996643 0.966983 0.990645 0.815305 0.881455 0.109939 0.129973 0.998061 0.947397 0.969413 0.176526 0.996302 0.995339 0.970553 1.00209 0.994013 0.781706 0.997327 0.95286 0.960718 0.999721 0.995783 0.557964 0.652741 0.998509 0.481302 0.999409 0.978562 0.74517 0.938631 0.98041 0.9868 0.360012 0.58017 0.999374 0.975103 0.0863829 0.983673 0.986005 0.977907 0.926956 0.962912 0.867885 0.994962 0.142821 0.952017 0.98832 0.967409 1.00069 0.227704 0.255368 0.905229 0.926812 1.00105 0.225806 0.802201 0.89681 0.233945 0.965959 0.544906 0.989109 0.987181 0.900885 0.864126 0.997658 0.998671 1.00028 0.822606 1.00321 0.139181 0.823381 0.340125 0.99635 0.148901 0.962923 0.118245 0.986201 0.511928 0.991957 0.663687 0.960394 0.908704 0.736426 0.184332 0.937093 0.978337 0.329428 0.347352 0.774006 0.285858 0.988558 0.15552 0.921969 0.990758 0.988722 0.288948 0.963751 0.311423 0.969235 0.926865 0.933796 0.914119 0.724735 0.990516 0.973522 0.955946 0.426674 1.00277 0.803638 0.399197 0.570965 0.667622 0.980165 0.89681 0.786592 0.962912 0.994685 0.214434 0.91184 0.987181 0.58017 0.887905 0.488241 0.979721 0.511928 0.881455 0.985845 0.978337 0.997763 0.802201 0.695937 0.967203 0.987688 0.963699 0.908704 0.46057 0.922008 0.991957 0.96428 0.731648 0.987264 0.921969 0.965959 0.962378 0.937093 0.91048 0.922196 0.481302 0.993483 0.633332 0.804465 0.996302 0.947397 0.855098 0.184332 0.995481 0.926956 0.997658 0.947968 0.544906 0.994101 0.0788486 1.00165 0.895885 0.652741 0.347352 0.543895 0.983128 0.865788 0.987088 0.995783 0.945385 0.74517 0.97158 0.996819 0.818915 0.968141 0.808066 0.994724 0.876672 0.970553 0.233945 0.311423 0.87201 0.998061 1.00149 0.96829 0.996643 0.777768 0.900971 0.990758 0.129973 0.805214 1.00105 0.176526 0.203114 0.115625 0.259721 0.285858 0.422896 0.991878 0.992078 0.944982 0.914119 0.815305 0.329428 0.804393 0.982487 0.990645 0.148901 0.997889 0.360012 0.142859 0.962923 0.912087 0.969413 0.646851 0.0813708 0.975103 0.142821 0.978562 0.998525 0.172124 0.736426 0.174715 0.996076 0.999409 0.225806 0.994962 0.973522 0.974211 0.985799 
</DataArray>
<DataArray type="Float64" Name="cell variable 8" format="ascii">