<VTKFile type="UnstructuredGrid" version="0.1">
<UnstructuredGrid>
<Piece  NumberOfPoints="    2462" NumberOfCells="     411">
<Points>
<DataArray type="Float64" NumberOfComponents="3" format="ascii">
-1.16703 -6.34342 0.0
-2.25693 -8.03906 0.0
1.1989 -17.7533 0.0
2.30236 -17.4159 0.0
2.38308 -17.226 0.0
-0.509725 -6.2796 0.0
-0.94006 -6.24662 0.0
20.8369 19.4968 0.0
23.0825 15.9574 0.0
23.7746 15.9886 0.0
29.1524 17.7181 0.0
29.5649 18.9997 0.0
42.4344 -30.5389 0.0
39.3859 -32.6304 0.0
44.8365 -35.5201 0.0
45.7297 -35.501 0.0
46.7754 -34.9972 0.0
46.5706 -33.0982 0.0
45.9151 -29.4843 0.0
-6.05569 28.0605 0.0
-8.62506 25.325 0.0
-0.636756 26.1936 0.0
-0.341239 26.5117 0.0
-1.02517 27.8144 0.0
-3.53854 29.7456 0.0
-25.6836 -35.4609 0.0
-25.0354 -32.7268 0.0
-25.1149 -31.8287 0.0
-25.9758 -30.8759 0.0
-29.9728 -30.3539 0.0
-30.3735 -31.3217 0.0
-30.8091 -36.2592 0.0
21.0114 -33.2797 0.0
20.1485 -32.9028 0.0
8.54633 -35.7055 0.0
9.18832 -36.5448 0.0
12.1989 -38.4844 0.0
15.7527 -36.9823 0.0
-54.4989 -17.9533 0.0
-54.0488 -17.8502 0.0
-54.0224 -12.1605 0.0
-55.2465 -9.42678 0.0
-56.1374 -8.1557 0.0
-57.7105 -10.1607 0.0
-58.1211 -10.818 0.0
25.1643 -28.3227 0.0
23.2331 -25.7592 0.0
18.8481 -28.4272 0.0
18.7749 -30.3314 0.0
20.9002 -32.2636 0.0
21.763 -32.6405 0.0
22.4351 -32.6673 0.0
48.9774 8.01601 0.0
48.9924 7.61021 0.0
54.9491 10.6709 0.0
55.0791 14.4575 0.0
54.765 14.6297 0.0
51.4032 14.6403 0.0
-42.6025 4.20912 0.0
-41.9746 5.72106 0.0
-42.82 7.75399 0.0
-44.8169 8.65997 0.0
-46.8277 8.90388 0.0
-47.3309 8.37502 0.0
-47.7563 3.53836 0.0
4.66149 24.4778 0.0
5.93311 23.2156 0.0
12.7691 21.8291 0.0
13.6612 24.4051 0.0
12.4798 25.2887 0.0
4.75125 25.5936 0.0
0.0290965 -23.1465 0.0
-0.263197 -24.4694 0.0
-0.0315003 -28.486 0.0
0.695005 -28.7457 0.0
6.1554 -26.8681 0.0
6.69385 -25.185 0.0
33.2139 40.2812 0.0
32.4389 42.0554 0.0
31.4343 43.5425 0.0
24.295 47.5473 0.0
24.0492 47.2609 0.0
24.2953 45.8583 0.0
32.7906 39.3041 0.0
-18.561 -22.0636 0.0
-16.1524 -22.384 0.0
-14.2935 -17.8434 0.0
-18.7942 -16.4939 0.0
-20.3598 -20.628 0.0
55.5261 -3.8908 0.0
55.1061 -6.75119 0.0
59.4587 -8.9302 0.0
60.0145 -8.4278 0.0
61.0157 -5.72354 0.0
60.875 -4.70889 0.0
-37.6317 -4.4238 0.0
-37.6386 -4.45704 0.0
-36.9021 -7.06179 0.0
-31.5947 -11.5334 0.0
-30.9526 -11.379 0.0
-30.0757 -9.35683 0.0
-30.2859 -8.55187 0.0
-46.3397 -31.7372 0.0
-45.645 -31.9889 0.0
-46.6154 -27.859 0.0
-46.7721 -27.3922 0.0
-50.1353 -23.3435 0.0
-50.669 -22.8234 0.0
-51.5001 -25.1677 0.0
25.1652 9.25251 0.0
23.408 8.52336 0.0
24.0387 5.71417 0.0
24.7988 5.29944 0.0
30.1057 5.72461 0.0
33.3458 6.05248 0.0
33.2331 6.38732 0.0
13.8335 -50.6601 0.0
15.2773 -50.5415 0.0
16.0645 -49.0745 0.0
16.7119 -46.8129 0.0
16.5592 -45.7783 0.0
15.4499 -43.7975 0.0
13.6514 -43.3182 0.0
13.5203 -43.4085 0.0
46.834 -14.5258 0.0
46.7339 -15.5324 0.0
54.5193 -16.7008 0.0
55.3162 -16.4345 0.0
55.8524 -13.1047 0.0
52.8288 -12.2061 0.0
50.3123 -13.1159 0.0
-53.2245 -3.92925 0.0
-53.6394 0.489489 0.0
-57.7352 -0.31067 0.0
-57.4131 -3.81994 0.0
-56.1294 -5.07917 0.0
-36.0374 27.5105 0.0
-35.5021 25.5209 0.0
-31.5763 25.8909 0.0
-31.1665 26.9563 0.0
-30.141 30.1014 0.0
-30.6737 30.9229 0.0
-36.2055 29.1873 0.0
-30.2279 32.952 0.0
-30.0783 31.6546 0.0
-29.5456 30.8331 0.0
-26.4541 34.1302 0.0
-24.0694 39.6232 0.0
-24.2861 39.9493 0.0
-25.3979 39.8764 0.0
-18.9188 8.40753 0.0
-16.0026 11.2537 0.0
-16.4283 14.4538 0.0
-17.2336 15.0615 0.0
-22.4818 13.5797 0.0
-8.78992 25.0055 0.0
-9.11119 24.7149 0.0
-8.79276 21.3629 0.0
-2.37368 24.0147 0.0
-2.00295 24.3274 0.0
-0.801609 25.8741 0.0
5.05519 46.0363 0.0
6.46449 45.1001 0.0
10.9897 47.7774 0.0
5.87423 48.7693 0.0
2.39069 49.3726 0.0
-1.34801 -60.5233 0.0
0.0180762 -60.5338 0.0
0.292961 -55.245 0.0
0.398753 -51.2303 0.0
0.0810141 -51.0583 0.0
-4.0279 -52.9423 0.0
4.0291 16.6448 0.0
0.385822 16.1088 0.0
-2.31783 9.19233 0.0
2.02227 11.6519 0.0
-13.8266 35.5926 0.0
-17.0563 36.5047 0.0
-22.1441 28.5788 0.0
-20.8813 29.1137 0.0
-13.7107 35.0405 0.0
-38.6332 -40.1788 0.0
-36.6528 -43.0243 0.0
-33.7639 -44.0712 0.0
-31.4721 -42.1172 0.0
-32.6541 -38.7568 0.0
-33.7155 -38.0005 0.0
-34.6249 -37.9164 0.0
12.8116 -57.1264 0.0
15.1507 -51.8061 0.0
14.9456 -51.1989 0.0
13.5018 -51.3174 0.0
9.57136 -51.6447 0.0
7.03203 -52.9084 0.0
-30.5774 26.8222 0.0
-30.9872 25.7567 0.0
-29.1631 24.4431 0.0
-25.361 25.3979 0.0
-24.5754 26.9758 0.0
-24.382 29.2778 0.0
-24.6712 29.619 0.0
13.6715 34.2066 0.0
16.8708 32.2024 0.0
17.4955 38.5438 0.0
14.7291 39.0381 0.0
14.1613 38.9199 0.0
13.2352 36.9824 0.0
4.45379 59.9135 0.0
1.32281 57.3232 0.0
5.36534 57.0402 0.0
10.0288 61.5168 0.0
8.90763 61.8698 0.0
16.8699 -21.3721 0.0
16.9882 -21.4295 0.0
29.6346 -16.6687 0.0
29.8158 -15.8644 0.0
29.3233 -15.3853 0.0
24.4547 -16.9603 0.0
18.0325 -19.0541 0.0
17.813 -19.1933 0.0
16.0017 -20.5936 0.0
-41.3906 -6.59414 0.0
-38.5063 -4.03787 0.0
-38.4995 -4.00463 0.0
-38.5081 -3.69857 0.0
-43.2979 -1.88622 0.0
-45.8069 -2.74158 0.0
-46.1039 -3.42188 0.0
-40.1433 -16.8191 0.0
-40.2277 -16.9913 0.0
-37.7148 -25.9848 0.0
-36.4207 -25.5743 0.0
-35.7735 -21.9905 0.0
-42.4492 -24.3915 0.0
-43.8349 -22.5896 0.0
-49.8791 -23.0643 0.0
-46.5159 -27.113 0.0
-37.1681 43.5595 0.0
-38.3027 43.0786 0.0
-38.6093 33.2994 0.0
-37.9639 32.0925 0.0
-37.1362 31.7256 0.0
-35.7804 33.8379 0.0
-35.5855 39.5188 0.0
-36.0861 43.2542 0.0
-36.1782 43.324 0.0
15.3895 53.8188 0.0
18.4788 54.6977 0.0
16.7405 61.3267 0.0
13.7319 60.8456 0.0
13.0833 58.5866 0.0
-12.7623 -48.2962 0.0
-16.489 -49.1413 0.0
-16.8823 -49.3509 0.0
-16.7808 -50.6399 0.0
-14.3459 -57.2226 0.0
-13.1882 -57.245 0.0
-52.3672 22.5864 0.0
-52.9316 22.3898 0.0
-54.8443 19.9675 0.0
-54.1667 15.7267 0.0
-51.063 15.4825 0.0
-50.7774 16.1573 0.0
44.5202 18.75 0.0
45.9756 12.3009 0.0
48.5178 8.23653 0.0
50.9435 14.8609 0.0
50.8774 15.026 0.0
-35.1669 -21.1645 0.0
-35.3893 -22.2205 0.0
-36.0365 -25.8044 0.0
-33.7815 -26.6428 0.0
-30.9017 -24.3327 0.0
12.7438 58.3209 0.0
9.21031 55.9612 0.0
12.5319 52.049 0.0
13.44 51.9356 0.0
15.05 53.5531 0.0
34.4937 4.31514 0.0
33.1479 2.43307 0.0
29.7757 -6.39911 0.0
34.1328 -4.16918 0.0
35.5699 3.88242 0.0
18.5815 -12.8134 0.0
16.3512 -13.9462 0.0
17.4011 -18.8772 0.0
17.6206 -18.7379 0.0
21.8957 -13.9705 0.0
19.5399 -13.1465 0.0
42.5113 8.97782 0.0
42.1368 5.60586 0.0
43.3974 4.34847 0.0
44.6257 4.09054 0.0
48.0222 5.84641 0.0
48.2684 7.19462 0.0
48.2535 7.60041 0.0
45.7113 11.6647 0.0
11.1859 31.531 0.0
12.3806 32.2619 0.0
13.1837 33.9811 0.0
12.7474 36.7569 0.0
10.3645 35.8137 0.0
6.54012 32.4051 0.0
28.299 -26.7895 0.0
25.6304 -28.4662 0.0
22.9012 -32.8107 0.0
23.7668 -33.574 0.0
27.1039 -33.4207 0.0
29.6599 -30.6019 0.0
49.288 22.9866 0.0
49.7505 20.8309 0.0
51.3605 16.9734 0.0
57.3154 23.255 0.0
-47.7676 12.4961 0.0
-48.9522 13.1251 0.0
-54.6277 9.35744 0.0
-52.039 9.09553 0.0
-47.8245 8.8155 0.0
-47.3213 9.34436 0.0
-23.3212 41.4044 0.0
-23.5293 40.7612 0.0
-23.3126 40.4351 0.0
-20.1258 40.0414 0.0
-19.1153 41.1834 0.0
-17.4485 44.7027 0.0
-15.9397 49.5174 0.0
4.71534 -56.7243 0.0
4.85372 -52.8625 0.0
3.78168 -51.4503 0.0
2.41286 -51.2041 0.0
0.808697 -51.0547 0.0
0.702904 -55.0694 0.0
-24.5083 49.288 0.0
-22.9489 49.2013 0.0
-21.5092 55.7059 0.0
-26.2994 55.0436 0.0
-0.12069 25.7829 0.0
-1.32203 24.2361 0.0
-0.0868657 17.7907 0.0
-0.0227384 17.8 0.0
3.8269 24.3877 0.0
3.91667 25.5035 0.0
3.84287 25.6325 0.0
3.11274 26.221 0.0
0.174827 26.1009 0.0
32.6699 34.564 0.0
32.4018 33.587 0.0
38.2677 27.4854 0.0
39.4721 27.0925 0.0
39.226 28.3105 0.0
36.0944 34.3726 0.0
33.9874 35.696 0.0
55.0261 1.7646 0.0
56.7008 3.02114 0.0
63.0301 12.0028 0.0
62.6331 12.7443 0.0
60.515 11.5055 0.0
56.46 8.27772 0.0
54.0461 3.52017 0.0
10.9775 -11.3123 0.0
12.1783 -14.7716 0.0
12.8466 -15.305 0.0
14.1431 -14.3103 0.0
16.8926 -7.75865 0.0
37.5997 -5.12545 0.0
38.0676 -4.02815 0.0
37.8607 4.47303 0.0
35.9161 3.93707 0.0
34.479 -4.11452 0.0
55.4749 -16.9443 0.0
54.678 -17.2106 0.0
48.3213 -20.5717 0.0
55.823 -21.791 0.0
55.947 -21.5671 0.0
56.5817 -18.7266 0.0
26.2487 -44.1755 0.0
26.1627 -43.1652 0.0
21.7773 -39.9867 0.0
20.6558 -40.4042 0.0
16.0649 -43.4054 0.0
17.1743 -45.3862 0.0
-10.9259 -24.7326 0.0
-10.8523 -25.8626 0.0
-2.69176 -31.0688 0.0
-1.87452 -29.1153 0.0
-8.19227 -23.7828 0.0
-9.12947 -23.0967 0.0
-16.9514 26.5361 0.0
-18.7616 22.6757 0.0
-18.5898 22.3499 0.0
-17.0765 21.1022 0.0
-14.2012 23.4532 0.0
-11.9093 28.6045 0.0
-16.2496 27.3412 0.0
57.1567 15.4166 0.0
55.5828 14.5152 0.0
55.4527 10.7286 0.0
56.3902 8.77669 0.0
60.4452 12.0045 0.0
-48.426 -4.4925 0.0
-47.6916 -4.69737 0.0
-46.7699 -3.08349 0.0
-46.4729 -2.40319 0.0
-48.49 2.03735 0.0
-50.5536 2.71318 0.0
-52.0735 3.13765 0.0
-3.37004 0.0125535 0.0
-4.17007 1.4914 0.0
-7.87769 -0.836989 0.0
-3.26317 -4.24907 0.0
-1.60937 -5.33354 0.0
-1.3824 -5.23674 0.0
41.8276 19.8495 0.0
42.2706 22.1182 0.0
41.7088 24.7221 0.0
40.6191 25.0448 0.0
36.9331 21.6781 0.0
36.6499 21.1562 0.0
36.8513 20.4139 0.0
-10.7788 -26.2778 0.0
-10.8568 -26.6604 0.0
-4.78384 -34.534 0.0
-3.30748 -35.3327 0.0
-2.83865 -33.7444 0.0
-2.61827 -31.484 0.0
-28.1437 10.3211 0.0
-28.0056 7.59069 0.0
-22.8764 2.3881 0.0
-21.6742 3.31204 0.0
-20.7015 4.38735 0.0
-20.8087 5.33685 0.0
-27.0774 11.1449 0.0
-25.2923 -39.1348 0.0
-25.7435 -36.0377 0.0
-30.8689 -36.836 0.0
-32.0433 -38.566 0.0
-30.8612 -41.9264 0.0
-28.7891 -42.5346 0.0
-25.5841 -39.5419 0.0
-17.3548 -2.36651 0.0
-14.0577 -1.91658 0.0
-15.8286 1.35045 0.0
-16.0849 1.69347 0.0
-16.9756 2.17728 0.0
-19.9899 3.77259 0.0
-20.9625 2.69728 0.0
-28.7832 0.0935993 0.0
-29.7923 3.11438 0.0
-34.1723 4.51885 0.0
-35.5414 4.64521 0.0
-36.1732 3.9516 0.0
-35.8439 1.51603 0.0
-19.9618 -28.6875 0.0
-19.2571 -25.7614 0.0
-18.9372 -22.5421 0.0
-20.736 -21.1065 0.0
-22.1833 -21.2899 0.0
-24.3573 -23.7587 0.0
14.1437 39.7211 0.0
14.7114 39.8392 0.0
16.0122 41.7268 0.0
19.5274 46.8035 0.0
17.7082 47.4636 0.0
13.6597 46.4906 0.0
11.8519 42.245 0.0
-15.6545 -22.5455 0.0
-11.5116 -24.1467 0.0
-9.71521 -22.5108 0.0
-9.40682 -21.099 0.0
[...]
<CellData Scalars="cell variable 4" Vectors="cell vector">
<DataArray type="Float64" NumberOfComponents="3" Name="cell vector" format="ascii">
0 0 0
0 0 0
0 0 0
0 0 0
0 0 0
0 0 0
0 0 0
0 0 0
0 0 0
0 0 0
0 0 0
0 0 0
0 0 0
0 0 0
0 0 0
0 0 0
0 0 0
0 0 0
0 0 0
0 0 0
0 0 0
0 0 0
0 0 0
0 0 0
0 0 0
0 0 0
0 0 0
0 0 0
0 0 0
0 0 0
0 0 0
0 0 0
0 0 0
0 0 0
0 0 0
0 0 0
0 0 0
0 0 0
0 0 0
0 0 0
0 0 0
0 0 0
0 0 0
0 0 0
0 0 0
0 0 0
0 0 0
0 0 0
0 0 0
0 0 0
0 0 0
0 0 0
0 0 0
0 0 0
0 0 0
0 0 0
0 0 0
0 0 0
0 0 0
0 0 0
0 0 0
0 0 0
0 0 0
0 0 0
0 0 0
0 0 0
0 0 0
0 0 0
0 0 0
0 0 0
0 0 0
0 0 0
0 0 0
0 0 0
0 0 0
0 0 0
0 0 0
0 0 0
0 0 0
0 0 0
0 0 0
0 0 0
0 0 0
0 0 0
0 0 0
0 0 0
0 0 0
0 0 0
0 0 0
0 0 0
0 0 0
0 0 0
0 0 0
0 0 0
0 0 0
0 0 0
0 0 0
0 0 0
0 0 0
0 0 0
0 0 0
0 0 0
0 0 0
0 0 0
0 0 0
0 0 0
0 0 0
0 0 0
0 0 0
0 0 0
0 0 0
0 0 0
0 0 0
0 0 0
0 0 0
0 0 0
0 0 0
0 0 0
0 0 0
0 0 0
0 0 0
0 0 0
0 0 0
0 0 0
0 0 0
0 0 0
0 0 0
0 0 0
0 0 0
0 0 0
0 0 0
0 0 0
0 0 0
0 0 0
0 0 0
0 0 0
0 0 0
0 0 0
0 0 0
0 0 0
0 0 0
0 0 0
0 0 0
0 0 0
0 0 0
0 0 0
0 0 0
0 0 0
0 0 0
0 0 0
0 0 0
0 0 0
0 0 0
0 0 0
0 0 0
0 0 0
0 0 0
0 0 0
0 0 0
0 0 0
0 0 0
0 0 0
0 0 0
0 0 0
0 0 0
0 0 0
0 0 0
0 0 0
0 0 0
0 0 0
0 0 0
0 0 0
0 0 0
0 0 0
0 0 0
0 0 0
0 0 0
0 0 0
0 0 0
0 0 0
0 0 0
0 0 0
0 0 0
0 0 0
0 0 0
0 0 0
0 0 0
0 0 0
0 0 0
0 0 0
0 0 0
0 0 0
0 0 0
0 0 0
0 0 0
0 0 0
0 0 0
0 0 0
0 0 0
0 0 0
0 0 0
0 0 0
0 0 0
0 0 0
0 0 0
0 0 0
0 0 0
0 0 0
0 0 0
0 0 0
0 0 0
0 0 0
0 0 0
0 0 0
0 0 0
0 0 0
0 0 0
0 0 0
0 0 0
0 0 0
0 0 0
0 0 0
0 0 0
0 0 0
0 0 0
0 0 0
0 0 0
0 0 0
0 0 0
0 0 0
0 0 0
0 0 0
0 0 0
0 0 0
0 0 0
0 0 0
0 0 0
0 0 0
0 0 0
0 0 0
0 0 0
0 0 0
0 0 0
0 0 0
0 0 0
0 0 0
0 0 0
0 0 0
0 0 0
0 0 0
0 0 0
0 0 0
0 0 0
0 0 0
0 0 0
0 0 0
0 0 0
0 0 0
0 0 0
0 0 0
0 0 0
0 0 0
0 0 0
0 0 0
0 0 0
0 0 0
0 0 0
0 0 0
0 0 0
0 0 0
0 0 0
0 0 0
0 0 0
0 0 0
0 0 0
0 0 0
0 0 0
0 0 0
0 0 0
0 0 0
0 0 0
0 0 0
0 0 0
0 0 0
0 0 0
0 0 0
0 0 0
0 0 0
0 0 0
0 0 0
0 0 0
0 0 0
0 0 0
0 0 0
0 0 0
0 0 0
0 0 0
0 0 0
0 0 0
0 0 0
0 0 0
0 0 0
0 0 0
0 0 0
0 0 0
0 0 0
0 0 0
0 0 0
0 0 0
0 0 0
0 0 0
0 0 0
0 0 0
0 0 0
0 0 0
0 0 0
0 0 0
0 0 0
0 0 0
0 0 0
0 0 0
0 0 0
0 0 0
0 0 0
0 0 0
0 0 0
0 0 0
0 0 0
0 0 0
0 0 0
0 0 0
0 0 0
0 0 0
0 0 0
0 0 0
0 0 0
0 0 0
0 0 0
0 0 0
0 0 0
0 0 0
0 0 0
0 0 0
0 0 0
0 0 0
0 0 0
0 0 0
0 0 0
0 0 0
0 0 0
0 0 0
0 0 0
0 0 0
0 0 0
0 0 0
0 0 0
0 0 0
0 0 0
0 0 0
0 0 0
0 0 0
0 0 0
0 0 0
0 0 0
0 0 0
0 0 0
0 0 0
0 0 0
0 0 0
0 0 0
0 0 0
0 0 0
0 0 0
0 0 0
0 0 0
0 0 0
0 0 0
0 0 0
0 0 0
0 0 0
0 0 0
0 0 0
0 0 0
0 0 0
0 0 0
0 0 0
0 0 0
0 0 0
0 0 0
0 0 0
0 0 0
0 0 0
0 0 0
0 0 0
0 0 0
0 0 0
0 0 0
0 0 0
0 0 0
0 0 0
0 0 0
0 0 0
0 0 0
0 0 0
0 0 0
0 0 0
0 0 0
0 0 0
0 0 0
0 0 0
0 0 0
</DataArray>
<DataArray type="Float64" Name="cell vector length" format="ascii">
0 0 0 0 0 0 0 0 0 0 0 0 0 0 0 0 0 0 0 0 0 0 0 0 0 0 0 0 0 0 0 0 0 0 0 0 0 0 0 0 0 0 0 0 0 0 0 0 0 0 0 0 0 0 0 0 0 0 0 0 0 0 0 0 0 0 0 0 0 0 0 0 0 0 0 0 0 0 0 0 0 0 0 0 0 0 0 0 0 0 0 0 0 0 0 0 0 0 0 0 0 0 0 0 0 0 0 0 0 0 0 0 0 0 0 0 0 0 0 0 0 0 0 0 0 0 0 0 0 0 0 0 0 0 0 0 0 0 0 0 0 0 0 0 0 0 0 0 0 0 0 0 0 0 0 0 0 0 0 0 0 0 0 0 0 0 0 0 0 0 0 0 0 0 0 0 0 0 0 0 0 0 0 0 0 0 0 0 0 0 0 0 0 0 0 0 0 0 0 0 0 0 0 0 0 0 0 0 0 0 0 0 0 0 0 0 0 0 0 0 0 0 0 0 0 0 0 0 0 0 0 0 0 0 0 0 0 0 0 0 0 0 0 0 0 0 0 0 0 0 0 0 0 0 0 0 0 0 0 0 0 0 0 0 0 0 0 0 0 0 0 0 0 0 0 0 0 0 0 0 0 0 0 0 0 0 0 0 0 0 0 0 0 0 0 0 0 0 0 0 0 0 0 0 0 0 0 0 0 0 0 0 0 0 0 0 0 0 0 0 0 0 0 0 0 0 0 0 0 0 0 0 0 0 0 0 0 0 0 0 0 0 0 0 0 0 0 0 0 0 0 0 0 0 0 0 0 0 0 0 0 0 0 0 0 0 0 0 0 0 0 0 0 0 0 0 0 0 0 0 0 0 0 0 0 0 0 0 0 0 0 0 0 0 0 0 0 0 0 0 0 0 0 0 0 0 0 0 0 0 0 
</DataArray>
<DataArray type="Float64" Name="cell variable 4" format="ascii">
1.11547 1.06245 0.657465 1.07467 0.631062 0.94865 0.542818 0.94865 0.736473 0.8063 1.14226 1.04461 0.790107 1.04461 0.573608 0.919422 0.631062 1.10185 0.789941 0.573608 0.542818 0.99432 0.99432 1.00681 1.07467 0.626025 0.789941 1.14226 0.99432 0.631062 0.789941 0.99432 0.980966 0.626025 1.11547 0.919422 0.919422 0.631062 0.673042 0.626025 0.66381 0.8063 0.848855 0.919422 0.626025 1.10185 1.11547 0.848855 0.980966 0.657465 0.848855 0.8063 0.763876 0.789941 0.763876 1.07467 1.06245 0.736473 1.11547 0.912892 0.573608 0.708918 1.04461 1.07467 0.736473 0.542818 1.12037 0.848855 1.04461 1.00681 0.631062 1.12037 1.00681 0.90618 0.626025 1.04461 0.66381 0.94865 0.90618 1.11547 0.573608 0.708918 1.11547 0.790107 1.11547 0.912892 1.04461 1.10185 1.14226 1.07467 0.790107 0.708918 0.99432 0.626025 0.980966 0.980966 0.763876 0.919422 1.12037 1.11547 1.04461 1.04461 0.919422 0.495708 0.631062 0.919422 0.542818 1.12037 0.573608 0.912892 0.763876 0.790107 0.763876 0.673042 0.912892 1.14226 0.789941 0.657465 1.11547 0.789941 0.626025 1.07467 1.00681 0.94865 0.673042 0.673042 0.66381 1.06245 0.99432 0.790107 0.66381 0.763876 0.789941 0.848855 0.626025 1.06245 0.789941 0.789941 1.04461 0.789941 0.790107 1.00681 1.12037 0.763876 0.542818 0.980966 0.66381 0.99432 0.980966 0.848855 1.04461 0.980966 0.573608 0.919422 1.00681 0.8063 0.912892 1.12037 0.542818 1.06245 1.07467 0.94865 0.848855 1.06245 1.00681 0.763876 0.657465 1.11547 1.11547 1.10185 1.10185 0.919422 1.12037 0.626025 0.848855 0.673042 1.00681 1.00681 0.66381 0.790107 1.12037 1.00681 1.00681 0.657465 1.00681 0.980966 0.763876 1.11547 0.673042 0.848855 1.07467 0.912892 1.07467 0.631062 0.980966 0.789941 0.94865 0.763876 0.8063 0.919422 0.790107 0.90618 0.708918 0.657465 1.12037 0.912892 0.763876 0.708918 0.763876 0.980966 1.07467 1.10185 0.631062 1.06245 0.657465 1.10185 0.980966 0.673042 0.573608 1.07467 1.04461 1.04461 0.790107 1.10185 0.657465 0.8063 0.673042 1.10185 0.912892 0.763876 1.07467 0.90618 0.848855 1.10185 1.04461 0.919422 1.10185 0.399988 0.8063 0.631062 0.99432 0.94865 0.919422 1.11547 0.919422 1.00681 0.90618 0.736473 0.36504 1.07467 1.10185 0.848855 0.626025 1.14226 0.790107 0.763876 1.10185 0.99432 0.657465 0.790107 1.11547 0.573608 1.06245 0.919422 0.626025 0.631062 1.14226 0.912892 0.912892 0.919422 1.11547 0.789941 0.631062 0.542818 1.14226 1.11547 0.94865 0.631062 0.94865 1.11547 0.736473 0.736473 0.8063 0.912892 0.789941 0.912892 0.631062 0.626025 1.10185 1.00681 0.912892 1.14226 0.94865 0.763876 0.790107 0.8063 0.66381 1.12037 0.66381 0.673042 0.912892 0.790107 1.12037 1.06245 0.912892 0.789941 0.848855 0.673042 0.94865 0.90618 0.90618 0.763876 1.12037 1.07467 0.912892 0.848855 1.10185 1.11547 0.980966 0.8063 0.631062 0.789941 0.789941 0.848855 0.763876 0.848855 0.789941 1.14226 0.573608 0.8063 1.04461 0.66381 0.912892 0.708918 0.790107 0.980966 0.90618 0.495708 1.04461 0.657465 0.90618 0.919422 1.00681 0.94865 0.99432 1.06245 0.8063 0.848855 0.99432 1.12037 0.657465 0.626025 0.919422 0.657465 1.00681 0.789941 0.631062 0.8063 0.8063 1.14226 1.12037 0.542818 0.657465 0.919422 0.919422 0.763876 0.848855 1.06245 0.789941 1.11547 0.980966 0.789941 0.434405 1.10185 0.90618 0.790107 1.12037 0.919422 0.673042 0.626025 0.66381 1.11547 1.06245 0.8063 0.542818 0.919422 0.626025 0.90618 1.14226 0.542818 0.626025 1.04461 0.90618 0.657465 0.657465 0.919422 0.66381 1.12037 1.06245 1.06245 1.07467 1.11547 0.673042 0.790107 0.631062 1.14226 0.919422 1.07467 1.04461 0.573608 0.912892 
</DataArray>
<DataArray type="Float64" Name="cell variable 5" format="ascii">
0.00797274 0.00878122 0.0226112 0.00858434 0.0244954 0.0109898 0.0328244 0.0109898 0.0181031 0.0151488 0.00760594 0.00908091 0.0157662 0.00908091 0.0294962 0.0116913 0.0244954 0.00816951 0.0157727 0.0294962 0.0328244 0.0100133 0.0100133 0.00976872 0.00858434 0.0248813 0.0157727 0.00760594 0.0100133 0.0244954 0.0157727 0.0100133 0.0102849 0.0248813 0.00797274 0.0116913 0.0116913 0.0244954 0.021599 0.0248813 0.0221905 0.0151488 0.0136882 0.0116913 0.0248813 0.00816951 0.00797274 0.0136882 0.0102849 0.0226112 0.0136882 0.0151488 0.016849 0.0157727 0.016849 0.00858434 0.00878122 0.0181031 0.00797274 0.0118572 0.0294962 0.0195097 0.00908091 0.00858434 0.0181031 0.0328244 0.00790366 0.0136882 0.00908091 0.00976872 0.0244954 0.00790366 0.00976872 0.0120314 0.0248813 0.00908091 0.0221905 0.0109898 0.0120314 0.00797274 0.0294962 0.0195097 0.00797274 0.0157662 0.00797274 0.0118572 0.00908091 0.00816951 0.00760594 0.00858434 0.0157662 0.0195097 0.0100133 0.0248813 0.0102849 0.0102849 0.016849 0.0116913 0.00790366 0.00797274 0.00908091 0.00908091 0.0116913 0.0391044 0.0244954 0.0116913 0.0328244 0.00790366 0.0294962 0.0118572 0.016849 0.0157662 0.016849 0.021599 0.0118572 0.00760594 0.0157727 0.0226112 0.00797274 0.0157727 0.0248813 0.00858434 0.00976872 0.0109898 0.021599 0.021599 0.0221905 0.00878122 0.0100133 0.0157662 0.0221905 0.016849 0.0157727 0.0136882 0.0248813 0.00878122 0.0157727 0.0157727 0.00908091 0.0157727 0.0157662 0.00976872 0.00790366 0.016849 0.0328244 0.0102849 0.0221905 0.0100133 0.0102849 0.0136882 0.00908091 0.0102849 0.0294962 0.0116913 0.00976872 0.0151488 0.0118572 0.00790366 0.0328244 0.00878122 0.00858434 0.0109898 0.0136882 0.00878122 0.00976872 0.016849 0.0226112 0.00797274 0.00797274 0.00816951 0.00816951 0.0116913 0.00790366 0.0248813 0.0136882 0.021599 0.00976872 0.00976872 0.0221905 0.0157662 0.00790366 0.00976872 0.00976872 0.0226112 0.00976872 0.0102849 0.016849 0.00797274 0.021599 0.0136882 0.00858434 0.0118572 0.00858434 0.0244954 0.0102849 0.0157727 0.0109898 0.016849 0.0151488 0.0116913 0.0157662 0.0120314 0.0195097 0.0226112 0.00790366 0.0118572 0.016849 0.0195097 0.016849 0.0102849 0.00858434 0.00816951 0.0244954 0.00878122 0.0226112 0.00816951 0.0102849 0.021599 0.0294962 0.00858434 0.00908091 0.00908091 0.0157662 0.00816951 0.0226112 0.0151488 0.021599 0.00816951 0.0118572 0.016849 0.00858434 0.0120314 0.0136882 0.00816951 0.00908091 0.0116913 0.00816951 0.0588268 0.0151488 0.0244954 0.0100133 0.0109898 0.0116913 0.00797274 0.0116913 0.00976872 0.0120314 0.0181031 0.0698059 0.00858434 0.00816951 0.0136882 0.0248813 0.00760594 0.0157662 0.016849 0.00816951 0.0100133 0.0226112 0.0157662 0.00797274 0.0294962 0.00878122 0.0116913 0.0248813 0.0244954 0.00760594 0.0118572 0.0118572 0.0116913 0.00797274 0.0157727 0.0244954 0.0328244 0.00760594 0.00797274 0.0109898 0.0244954 0.0109898 0.00797274 0.0181031 0.0181031 0.0151488 0.0118572 0.0157727 0.0118572 0.0244954 0.0248813 0.00816951 0.00976872 0.0118572 0.00760594 0.0109898 0.016849 0.0157662 0.0151488 0.0221905 0.00790366 0.0221905 0.021599 0.0118572 0.0157662 0.00790366 0.00878122 0.0118572 0.0157727 0.0136882 0.021599 0.0109898 0.0120314 0.0120314 0.016849 0.00790366 0.00858434 0.0118572 0.0136882 0.00816951 0.00797274 0.0102849 0.0151488 0.0244954 0.0157727 0.0157727 0.0136882 0.016849 0.0136882 0.0157727 0.00760594 0.0294962 0.0151488 0.00908091 0.0221905 0.0118572 0.0195097 0.0157662 0.0102849 0.0120314 0.0391044 0.00908091 0.0226112 0.0120314 0.0116913 0.00976872 0.0109898 0.0100133 0.00878122 0.0151488 0.0136882 0.0100133 0.00790366 0.0226112 0.0248813 0.0116913 0.0226112 0.00976872 0.0157727 0.0244954 0.0151488 0.0151488 0.00760594 0.00790366 0.0328244 0.0226112 0.0116913 0.0116913 0.016849 0.0136882 0.00878122 0.0157727 0.00797274 0.0102849 0.0157727 0.0503251 0.00816951 0.0120314 0.0157662 0.00790366 0.0116913 0.021599 0.0248813 0.0221905 0.00797274 0.00878122 0.0151488 0.0328244 0.0116913 0.0248813 0.0120314 0.00760594 0.0328244 0.0248813 0.00908091 0.0120314 0.0226112 0.0226112 0.0116913 0.0221905 0.00790366 0.00878122 0.00878122 0.00858434 0.00797274 0.021599 0.0157662 0.0244954 0.00760594 0.0116913 0.00858434 0.00908091 0.0294962 0.0118572 
</DataArray>
<DataArray type="Float64" Name="cell variable 6" format="ascii">
4.32387e-06 5.74138e-06 8.84138e-05 5.3719e-06 0.000110922 1.10661e-05 0.000251962 1.10661e-05 4.69278e-05 2.80904e-05 3.76475e-06 6.33494e-06 3.15261e-05 6.33494e-06 0.000187165 1.32528e-05 0.000110922 4.64493e-06 3.156e-05 0.000187165 0.000251962 8.43313e-06 8.43313e-06 7.8448e-06 5.3719e-06 0.000115922 3.156e-05 3.76475e-06 8.43313e-06 0.000110922 3.156e-05 8.43313e-06 9.11938e-06 0.000115922 4.32387e-06 1.32528e-05 1.32528e-05 0.000110922 7.76673e-05 0.000115922 8.3838e-05 2.80904e-05 2.09522e-05 1.32528e-05 0.000115922 4.64493e-06 4.32387e-06 2.09522e-05 9.11938e-06 8.84138e-05 2.09522e-05 2.80904e-05 3.81646e-05 3.156e-05 3.81646e-05 5.3719e-06 5.74138e-06 4.69278e-05 4.32387e-06 1.38076e-05 0.000187165 5.81379e-05 6.33494e-06 5.3719e-06 4.69278e-05 0.000251962 4.21468e-06 2.09522e-05 6.33494e-06 7.8448e-06 0.000110922 4.21468e-06 7.8448e-06 1.4406e-05 0.000115922 6.33494e-06 8.3838e-05 1.10661e-05 1.4406e-05 4.32387e-06 0.000187165 5.81379e-05 4.32387e-06 3.15261e-05 4.32387e-06 1.38076e-05 6.33494e-06 4.64493e-06 3.76475e-06 5.3719e-06 3.15261e-05 5.81379e-05 8.43313e-06 0.000115922 9.11938e-06 9.11938e-06 3.81646e-05 1.32528e-05 4.21468e-06 4.32387e-06 6.33494e-06 6.33494e-06 1.32528e-05 0.000410215 0.000110922 1.32528e-05 0.000251962 4.21468e-06 0.000187165 1.38076e-05 3.81646e-05 3.15261e-05 3.81646e-05 7.76673e-05 1.38076e-05 3.76475e-06 3.156e-05 8.84138e-05 4.32387e-06 3.156e-05 0.000115922 5.3719e-06 7.8448e-06 1.10661e-05 7.76673e-05 7.76673e-05 8.3838e-05 5.74138e-06 8.43313e-06 3.15261e-05 8.3838e-05 3.81646e-05 3.156e-05 2.09522e-05 0.000115922 5.74138e-06 3.156e-05 3.156e-05 6.33494e-06 3.156e-05 3.15261e-05 7.8448e-06 4.21468e-06 3.81646e-05 0.000251962 9.11938e-06 8.3838e-05 8.43313e-06 9.11938e-06 2.09522e-05 6.33494e-06 9.11938e-06 0.000187165 1.32528e-05 7.8448e-06 2.80904e-05 1.38076e-05 4.21468e-06 0.000251962 5.74138e-06 5.3719e-06 1.10661e-05 2.09522e-05 5.74138e-06 7.8448e-06 3.81646e-05 8.84138e-05 4.32387e-06 4.32387e-06 4.64493e-06 4.64493e-06 1.32528e-05 4.21468e-06 0.000115922 2.09522e-05 7.76673e-05 7.8448e-06 7.8448e-06 8.3838e-05 3.15261e-05 4.21468e-06 7.8448e-06 7.8448e-06 8.84138e-05 7.8448e-06 9.11938e-06 3.81646e-05 4.32387e-06 7.76673e-05 2.09522e-05 5.3719e-06 1.38076e-05 5.3719e-06 0.000110922 9.11938e-06 3.156e-05 1.10661e-05 3.81646e-05 2.80904e-05 1.32528e-05 3.15261e-05 1.4406e-05 5.81379e-05 8.84138e-05 4.21468e-06 1.38076e-05 3.81646e-05 5.81379e-05 3.81646e-05 9.11938e-06 5.3719e-06 4.64493e-06 0.000110922 5.74138e-06 8.84138e-05 4.64493e-06 9.11938e-06 7.76673e-05 0.000187165 5.3719e-06 6.33494e-06 6.33494e-06 3.15261e-05 4.64493e-06 8.84138e-05 2.80904e-05 7.76673e-05 4.64493e-06 1.38076e-05 3.81646e-05 5.3719e-06 1.4406e-05 2.09522e-05 4.64493e-06 6.33494e-06 1.32528e-05 4.64493e-06 0.00127682 2.80904e-05 0.000110922 8.43313e-06 1.10661e-05 1.32528e-05 4.32387e-06 1.32528e-05 7.8448e-06 1.4406e-05 4.69278e-05 0.0019794 5.3719e-06 4.64493e-06 2.09522e-05 0.000115922 3.76475e-06 3.15261e-05 3.81646e-05 4.64493e-06 8.43313e-06 8.84138e-05 3.15261e-05 4.32387e-06 0.000187165 5.74138e-06 1.32528e-05 0.000115922 0.000110922 3.76475e-06 1.38076e-05 1.38076e-05 1.32528e-05 4.32387e-06 3.156e-05 0.000110922 0.000251962 3.76475e-06 4.32387e-06 1.10661e-05 0.000110922 1.10661e-05 4.32387e-06 4.69278e-05 4.69278e-05 2.80904e-05 1.38076e-05 3.156e-05 1.38076e-05 0.000110922 0.000115922 4.64493e-06 7.8448e-06 1.38076e-05 3.76475e-06 1.10661e-05 3.81646e-05 3.15261e-05 2.80904e-05 8.3838e-05 4.21468e-06 8.3838e-05 7.76673e-05 1.38076e-05 3.15261e-05 4.21468e-06 5.74138e-06 1.38076e-05 3.156e-05 2.09522e-05 7.76673e-05 1.10661e-05 1.4406e-05 1.4406e-05 3.81646e-05 4.21468e-06 5.3719e-06 1.38076e-05 2.09522e-05 4.64493e-06 4.32387e-06 9.11938e-06 2.80904e-05 0.000110922 3.156e-05 3.156e-05 2.09522e-05 3.81646e-05 2.09522e-05 3.156e-05 3.76475e-06 0.000187165 2.80904e-05 6.33494e-06 8.3838e-05 1.38076e-05 5.81379e-05 3.15261e-05 9.11938e-06 1.4406e-05 0.000410215 6.33494e-06 8.84138e-05 1.4406e-05 1.32528e-05 7.8448e-06 1.10661e-05 8.43313e-06 5.74138e-06 2.80904e-05 2.09522e-05 8.43313e-06 4.21468e-06 8.84138e-05 0.000115922 1.32528e-05 8.84138e-05 7.8448e-06 3.156e-05 0.000110922 2.80904e-05 2.80904e-05 3.76475e-06 4.21468e-06 0.000251962 8.84138e-05 1.32528e-05 1.32528e-05 3.81646e-05 2.09522e-05 5.74138e-06 3.156e-05 4.32387e-06 9.11938e-06 3.156e-05 0.000857904 4.64493e-06 1.4406e-05 3.15261e-05 4.21468e-06 1.32528e-05 7.76673e-05 0.000115922 8.3838e-05 4.32387e-06 5.74138e-06 2.80904e-05 0.000251962 1.32528e-05 0.000115922 1.4406e-05 3.76475e-06 0.000251962 0.000115922 6.33494e-06 1.4406e-05 8.84138e-05 8.84138e-05 1.32528e-05 8.3838e-05 4.21468e-06 5.74138e-06 5.74138e-06 5.3719e-06 4.32387e-06 7.76673e-05 3.15261e-05 0.000110922 3.76475e-06 1.32528e-05 5.3719e-06 6.33494e-06 0.000187165 1.38076e-05 
</DataArray>
<DataArray type="Float64" Name="cell variable 7" format="ascii">