<VTKFile type="UnstructuredGrid" version="0.1">
<UnstructuredGrid>
<Piece  NumberOfPoints="    3288" NumberOfCells="    2414">
<Points>
<DataArray type="Float64" NumberOfComponents="3" format="ascii">
21.6066 54.5819 0 
26.8449 22.6991 0 
-30.0689 -37.6974 0 
-8.74681 10.1947 0 
30.4601 8.00213 0 
-37.5554 3.61259 0 
-17.414 -6.5777 0 
1.95373 -15.7905 0 
-42.3281 -11.4547 0 
6.61958 33.0449 0 
45.1268 -1.89548 0 
10.6297 53.664 0 
-43.0473 -0.0330886 0 
11.4386 14.6699 0 
-41.7605 22.2632 0 
11.6273 -32.2033 0 
25.487 -23.3387 0 
-22.434 57.2959 0 
-32.5239 -23.7168 0 
44.0298 -36.4312 0 
38.2345 -28.601 0 
-1.60218 47.9017 0 
-41.3995 36.2418 0 
20.8043 4.71593 0 
-11.598 46.8272 0 
-38.091 37.147 0 
-25.3601 -37.0693 0 
-3.30004 -15.3141 0 
30.1558 -29.8702 0 
-12.833 -1.16535 0 
5.60594 -61.6304 0 
-14.303 0.370598 0 
-19.9791 -29.7884 0 
-43.1714 41.5193 0 
5.75318 -56.0792 0 
-21.4828 -47.6073 0 
-31.3313 1.51512 0 
29.8428 20.8303 0 
-16.6647 14.7393 0 
18.3838 -2.12935 0 
-8.37239 8.55063 0 
-48.5771 23.6835 0 
-1.58182 -32.9211 0 
53.5623 27.9805 0 
3.51976 -37.8067 0 
37.203 -43.183 0 
-39.7589 -1.25768 0 
24.7942 32.1187 0 
12.4032 29.2661 0 
-39.5928 38.0237 0 
45.12 11.1269 0 
1.39446 38.2123 0 
-7.68219 49.6282 0 
16.2755 -16.7653 0 
38.0705 24.8077 0 
-7.69091 41.5009 0 
-1.94508 45.9011 0 
33.982 30.5753 0 
10.7596 13.7825 0 
-16.9793 49.3928 0 
38.3117 24.6924 0 
23.4508 -7.81927 0 
-44.7571 9.99397 0 
-12.3058 -1.2414 0 
-13.573 -57.5727 0 
49.3267 -28.2081 0 
-35.4616 -46.0773 0 
31.8834 -21.0128 0 
31.6449 -28.1263 0 
-19.1834 39.0525 0 
46.8891 -12.0983 0 
-40.7318 -17.2075 0 
-59.1198 1.30635 0 
-2.2049 -7.42818 0 
54.2577 10.5174 0 
61.624 -8.45402 0 
-45.7606 14.2322 0 
-16.9126 32.9029 0 
1.3542 -6.2284 0 
25.1207 6.07279 0 
-11.8619 28.3337 0 
33.5469 48.6835 0 
-34.2982 -34.6993 0 
-54.5234 -5.55178 0 
-4.05353 -26.0568 0 
-13.8043 -25.8572 0 
41.7499 -21.2521 0 
-6.91697 18.1533 0 
41.4757 45.9933 0 
-23.2033 7.97091 0 
-6.49314 -33.0169 0 
-21.4084 30.1524 0 
23.0984 -14.5695 0 
26.4092 40.5072 0 
-23.5139 -8.19856 0 
38.2685 14.4374 0 
8.23006 38.3847 0 
8.44406 -5.50494 0 
-32.7271 -23.4635 0 
36.69 36.606 0 
10.9223 -24.4657 0 
-6.57299 2.35903 0 
-38.8139 -11.495 0 
-49.202 -15.6228 0 
41.6576 2.12505 0 
-47.5547 -0.205393 0 
-46.7361 -23.2299 0 
36.8134 -1.76081 0 
17.9383 59.5365 0 
-16.9214 -33.012 0 
-3.82475 -13.8468 0 
-48.0061 38.0107 0 
-24.7851 16.6673 0 
32.6693 -51.6671 0 
18.3575 -50.2426 0 
-0.508704 -47.4465 0 
39.5873 14.883 0 
5.29385 44.5597 0 
-24.4554 50.6526 0 
-23.1935 -44.7543 0 
18.2994 41.9703 0 
24.9339 -1.89803 0 
-55.8972 -5.36007 0 
-3.93228 37.9803 0 
-24.8689 3.16333 0 
-5.8837 -7.98324 0 
53.3494 1.31601 0 
-1.30281 -39.6513 0 
15.7547 17.7873 0 
-5.96703 -58.3963 0 
-24.5971 -50.1174 0 
-23.4315 -11.8761 0 
38.8928 14.2144 0 
-57.8238 10.6036 0 
-12.552 -8.97846 0 
49.7747 -26.255 0 
28.153 43.0392 0 
28.2853 51.3016 0 
13.0651 29.4979 0 
14.1297 -7.89522 0 
-57.1061 -27.3237 0 
39.3724 -9.07035 0 
4.63798 19.8965 0 
-21.8756 56.8355 0 
-42.1018 -10.3541 0 
-4.50592 -53.1568 0 
19.4011 -56.4283 0 
49.5804 -27.5862 0 
-7.09927 -50.3663 0 
-27.8531 27.6893 0 
29.5985 13.2124 0 
51.2426 19.107 0 
3.21297 15.1646 0 
12.2397 42.6987 0 
44.6209 -2.70011 0 
49.9269 32.5531 0 
41.2844 7.65134 0 
-25.9967 -37.4808 0 
26.3724 9.9556 0 
55.2659 23.6823 0 
14.0183 -40.0157 0 
-42.7163 -0.156112 0 
-17.6776 -31.9531 0 
27.6173 52.2938 0 
6.75484 -34.2771 0 
-19.7247 39.0769 0 
-23.2288 -9.41182 0 
-41.5804 -47.845 0 
3.83039 59.1708 0 
30.2365 -50.0387 0 
30.4123 -39.0472 0 
31.2728 37.2142 0 
-14.4458 -36.5845 0 
24.1287 24.6165 0 
21.0828 -25.4801 0 
58.4332 -13.0298 0 
-25.9517 14.3032 0 
-32.9037 45.9453 0 
-1.83357 53.2445 0 
49.5992 -31.0547 0 
14.6272 -57.9741 0 
-26.8345 54.481 0 
-34.7562 -19.752 0 
-2.57897 15.136 0 
-16.3045 26.5745 0 
-6.83171 -15.4997 0 
22.716 14.5283 0 
-7.71189 18.8571 0 
38.7223 -38.2521 0 
-28.8294 -53.1856 0 
23.0992 -56.4911 0 
48.7296 21.142 0 
-19.3358 -57.3256 0 
-40.9926 -25.3662 0 
-36.8717 -36.1144 0 
13.5728 -19.6729 0 
21.6692 42.5384 0 
13.7604 -38.3573 0 
10.6959 13.6742 0 
48.1733 23.5566 0 
7.09752 46.44 0 
50.3297 -17.2494 0 
-47.2607 39.2951 0 
9.56102 -50.8189 0 
-12.1521 -39.2478 0 
-7.14748 49.8143 0 
-34.0509 7.81864 0 
-16.8083 50.7344 0 
-8.65747 -17.3366 0 
1.09642 -48.227 0 
-31.5824 48.8111 0 
41.9582 -26.6732 0 
5.8021 4.77665 0 
24.9557 -3.83746 0 
-21.0045 -27.3085 0 
-25.0549 -37.121 0 
12.7133 -33.7487 0 
-47.2006 -22.9493 0 
-28.2415 44.2532 0 
1.24234 31.5497 0 
18.1179 28.2806 0 
-3.2365 57.2064 0 
21.4664 -40.5051 0 
-19.9343 24.9541 0 
-0.911906 -39.3532 0 
53.8813 11.3271 0 
-23.9556 16.263 0 
-36.7283 -44.8353 0 
46.2085 -1.85431 0 
-14.252 -24.9584 0 
-50.6475 -26.5018 0 
57.0482 -5.7979 0 
-45.6964 11.3829 0 
21.2998 19.479 0 
-1.72521 20.82 0 
-55.5807 9.29663 0 
19.6601 26.1963 0 
-25.2846 25.0613 0 
-23.2064 -25.1355 0 
-40.7029 16.2416 0 
-52.9981 22.8252 0 
-33.644 47.0718 0 
40.7857 -36.6809 0 
24.7528 -4.38958 0 
7.60209 4.19866 0 
-11.8383 -27.5161 0 
8.15769 42.3672 0 
-8.45359 -27.2891 0 
40.8047 -14.8044 0 
-21.2745 -46.0308 0 
-11.3186 -33.5132 0 
29.2095 21.768 0 
24.6833 24.7389 0 
-37.0914 -35.643 0 
-11.7807 -8.54769 0 
2.88121 -2.42517 0 
-35.9233 -3.4529 0 
-13.6946 40.9515 0 
0.973921 -56.6647 0 
45.2207 38.8717 0 
35.8797 -28.8048 0 
19.5894 -24.3012 0 
35.1638 43.5862 0 
-40.8326 12.0875 0 
13.8265 -53.8028 0 
20.9755 8.32728 0 
-27.7653 34.9086 0 
-53.5747 -1.68805 0 
-24.6231 3.92802 0 
-14.8086 53.3333 0 
34.874 -14.7259 0 
-43.9238 -40.2307 0 
-48.6658 -8.09333 0 
54.5601 10.3127 0 
47.9831 32.7125 0 
38.954 12.9525 0 
62.4574 1.68184 0 
37.0459 -4.82817 0 
12.751 57.5185 0 
-20.2994 -17.3692 0 
3.03463 -47.1807 0 
15.5355 59.4299 0 
-17.5603 -56.4975 0 
58.321 -15.2497 0 
32.4472 -20.6371 0 
46.9023 13.1725 0 
-51.2988 -13.4543 0 
24.8376 -2.08709 0 
35.2599 -20.7783 0 
-48.927 32.8416 0 
-61.867 -8.21039 0 
-22.0086 3.91112 0 
-12.0291 57.2533 0 
25.8777 -40.3384 0 
-54.0247 -11.3235 0 
11.1968 9.85437 0 
8.82092 -58.928 0 
3.21696 -22.3406 0 
-33.4017 47.091 0 
-41.4034 -9.94467 0 
-23.2042 26.1223 0 
-13.2334 -26.2073 0 
3.91879 44.1412 0 
15.5098 52.2951 0 
27.4648 -33.9799 0 
-22.5039 -25.47 0 
24.9946 -5.72978 0 
6.09359 44.5053 0 
-34.5184 29.4313 0 
-16.5815 -15.9309 0 
-30.4622 -27.6269 0 
-29.0908 -2.51427 0 
58.7346 14.9556 0 
-10.5718 -46.9734 0 
47.3698 -17.4641 0 
54.4772 -11.4262 0 
31.3302 -15.5652 0 
-18.5795 -44.626 0 
-18.08 20.1374 0 
-25.5396 41.988 0 
-11.5186 59.8967 0 
38.5985 -44.2535 0 
-30.1545 -38.9006 0 
15.5963 52.16 0 
-33.3853 -31.0029 0 
-1.52211 -9.15008 0 
-31.5134 -27.282 0 
-48.3882 -2.50539 0 
32.3035 -10.6268 0 
-28.8213 -51.1684 0 
51.672 -18.7555 0 
-61.8803 -8.28374 0 
7.66288 -25.2111 0 
47.3201 -14.5109 0 
-42.8654 -25.247 0 
-33.7852 -12.7385 0 
-30.4355 36.0268 0 
23.4507 -47.6864 0 
-33.4444 -30.4748 0 
-25.0672 19.6937 0 
37.8154 -31.9816 0 
-2.0954 47.0757 0 
37.831 -30.3511 0 
2.09211 59.5264 0 
6.92617 -8.34616 0 
7.09912 34.1661 0 
-7.0733 54.872 0 
2.06088 -28.4495 0 
-25.4603 18.0987 0 
56.1466 12.0884 0 
-56.5898 2.77516 0 
-49.1033 17.5762 0 
-44.5015 20.8341 0 
-10.2837 -17.6267 0 
27.1984 -34.4083 0 
-16.9055 14.5937 0 
1.65176 16.8699 0 
-10.4143 -54.9453 0 
-18.1648 -43.868 0 
-31.0555 36.2621 0 
18.4564 -17.6141 0 
7.97856 42.7687 0 
-37.1032 23.507 0 
-57.3925 17.379 0 
37.9334 -43.039 0 
9.41299 53.1487 0 
-48.3098 -2.94657 0 
-21.2058 -57.2299 0 
-58.5608 2.85728 0 
4.10391 -1.28951 0 
-9.14604 -57.0938 0 
53.2486 17.8277 0 
18.6124 14.8491 0 
-53.2136 30.1126 0 
13.08 -57.4563 0 
26.4206 -49.3165 0 
57.5539 -4.16973 0 
-13.5358 32.324 0 
-31.4153 36.9706 0 
9.74585 -15.4158 0 
-34.9388 -40.3784 0 
56.2155 20.148 0 
37.7698 24.8197 0 
34.968 15.3755 0 
24.4873 -23.4263 0 
-52.6887 30.2008 0 
-31.7061 15.4176 0 
26.2677 52.9483 0 
12.1498 15.7361 0 
-24.3214 -29.928 0 
55.0827 20.3489 0 
-12.1155 10.7846 0 
3.35378 18.4653 0 
-52.142 -20.2393 0 
49.8605 -26.3693 0 
45.9215 -11.9183 0 
-18.3144 14.3199 0 
27.9769 -23.3266 0 
-3.27746 17.103 0 
19.8435 48.9943 0 
-19.7546 46.9813 0 
14.8069 -25.2783 0 
-10.8122 60.8111 0 
-30.4162 21.9617 0 
17.8488 -6.48187 0 
-2.54533 -17.5313 0 
-35.6109 47.3923 0 
-49.0659 7.10693 0 
-12.6707 -26.3879 0 
46.8707 2.70728 0 
41.8806 45.2895 0 
-16.0394 18.2188 0 
11.0733 -49.6403 0 
22.2178 20.9173 0 
18.6176 12.2258 0 
-29.8749 16.6798 0 
-14.4053 -0.417396 0 
0.157463 27.2281 0 
-18.3809 31.4334 0 
-17.5371 -5.32887 0 
1.95896 -18.7973 0 
-4.0105 0.71991 0 
20.8235 10.7582 0 
-45.1416 -34.1559 0 
-30.0691 7.0701 0 
-7.23188 -36.459 0 
7.0345 -44.5961 0 
-21.0812 -28.5774 0 
4.44889 37.31 0 
23.7831 40.1264 0 
-2.15593 57.2413 0 
49.3112 7.71157 0 
-2.39804 27.6483 0 
-27.3477 26.1035 0 
-59.5939 -3.58981 0 
-36.4969 -22.8211 0 
-23.3274 -3.21698 0 
17.2289 -16.7244 0 
10.6636 -58.2462 0 
20.384 -10.677 0 
-29.5973 -51.5591 0 
4.0788 10.8405 0 
19.2883 51.7251 0 
18.9235 -49.2168 0 
-39.5076 -3.47339 0 
5.82343 12.5792 0 
-33.9679 -21.7345 0 
-3.8693 -55.6995 0 
-31.858 -49.8033 0 
-1.12165 28.4477 0 
-50.2184 -13.8969 0 
-24.6964 -57.1617 0 
15.7685 37.2168 0 
-59.2377 -0.791302 0 
-37.3576 -27.791 0 
36.3987 -13.3826 0 
-1.56424 48.0078 0 
-32.7492 -46.1036 0 
45.0134 -1.25168 0 
46.6538 28.8984 0 
-41.5275 -7.0307 0 
29.1871 7.2002 0 
-40.5264 6.40154 0 
-1.83474 42.8288 0 
-14.281 -37.723 0 
-49.3896 -32.7546 0 
0.33136 4.74632 0 
-4.35157 -32.5581 0 
-31.8006 -4.64014 0 
42.2092 15.6665 0 
-18.3707 -52.0465 0 
5.1262 20.122 0 
-58.1269 -14.6445 0 
31.9091 36.0165 0 
28.5144 -10.749 0 
-23.9559 -57.4561 0 
50.1851 -10.2126 0 
-26.3201 45.5502 0 
41.8656 -45.5295 0 
37.5245 -38.0294 0 
25.2997 -1.7388 0 
-12.9555 12.8002 0 
12.004 37.0553 0 
-30.7693 -16.0343 0 
-24.4343 -37.2664 0 
-22.8737 -15.3781 0 
-19.8869 -19.1694 0 
20.9242 -39.6655 0 
14.1781 -37.6507 0 
-8.75843 -17.3474 0 
57.9503 7.00766 0 
37.3564 -3.84676 0 
-23.7961 -37.6641 0 
[...]
<CellData Scalars="wall variable 0">
<DataArray type="Float64" Name="wall length" format="ascii">
3.89723 1.0418 0.536469 3.61161 1.29823 4.8013 0.235131 6.78707 6.90714 0.628488 3.00119 2.23761 6.96534 5.02117 7.84126 2.19475 9.1074 0.905744 4.727 0.457768 4.00343 3.56954 4.8383 5.42206 3.51287 1.01365 4.04915 2.31605 0.45698 4.11527 4.8383 3.34572 4.19276 3.75072 3.38751 2.00937 1.89815 1.34923 4.07484 3.39655 0.372125 5.5059 0.799047 6.92189 5.6173 2.04868 0.814844 3.05505 0.921543 0.599856 6.83843 1.85149 2.41204 0.680677 2.06366 5.50308 0.612564 0.493989 0.240956 1.29868 5.5059 3.33813 2.31535 0.805655 2.05723 0.308576 7.31958 2.46526 0.548225 1.66534 8.13843 3.77647 4.21939 0.975401 2.5181 1.57202 1.44758 2.31069 2.87948 6.87845 1.22163 1.88257 4.04915 3.26051 0.599856 1.0204 7.31007 1.80224 2.20399 0.462029 6.84404 2.32108 6.36836 2.92079 7.59532 0.0642313 4.1895 4.06121 6.0727 2.16819 0.856382 4.48276 5.78098 4.73117 0.676306 6.26355 2.37723 3.34236 0.934193 6.26355 5.18988 1.96803 6.08139 1.17117 0.645731 5.76524 2.86537 0.734581 2.58423 8.48433 2.92079 0.936397 5.07599 1.5655 4.15287 1.17896 5.73698 2.98363 2.33358 7.94686 0.419266 6.80762 3.54531 0.219954 1.97906 1.04678 4.7719 0.361621 8.26916 1.85906 4.86227 2.07937 4.73884 3.94302 4.16638 3.39513 5.22689 5.31807 0.771443 4.48276 0.191016 5.05851 3.19794 4.72648 1.5777 13.1412 0.272166 6.79547 2.11249 2.71681 5.63539 3.44323 3.37823 1.70313 3.72506 1.88991 1.53795 5.65529 3.21306 0.113981 3.95547 1.84358 4.98857 7.31007 2.96445 6.18782 2.82218 6.84404 1.99301 6.00432 0.48074 2.76889 1.7993 4.83785 1.15878 4.26867 4.67611 2.90526 3.66853 1.2335 0.45698 0.275707 5.10905 5.26758 8.56117 0.974958 1.74061 3.23272 1.62232 2.13105 3.29648 7.09648 1.44758 10.3882 0.389064 2.09893 0.195336 0.0476042 5.76908 2.48664 0.363415 2.09504 3.61572 3.02195 2.91 7.89124 2.79376 2.99955 2.31535 0.321188 1.91652 0.591248 1.07677 5.90258 2.37723 0.934193 3.82778 2.20596 0.749614 0.99776 6.27927 5.2151 0.325661 2.97473 8.76139 6.02308 1.67899 2.57539 3.53847 0.82707 2.80674 4.77003 2.88167 4.76904 2.97568 0.975987 1.25092 7.03855 0.969828 11.9053 0.450191 1.85977 0.7178 4.94038 7.52738 2.01336 1.04864 4.28132 1.28908 0.555508 4.58034 6.66586 1.4244 10.1009 2.29812 1.82493 2.35191 4.88691 0.807455 0.48074 1.15646 0.953269 0.522633 3.95747 3.56066 6.96162 0.98064 8.76139 2.00125 1.61415 10.1009 0.523073 6.80625 6.47352 1.99798 0.969828 1.45827 0.37899 8.20239 1.59436 4.44672 7.32522 1.73665 7.07529 0.140513 1.26238 2.06302 3.0394 4.57605 1.13975 9.02394 1.22163 0.421154 4.07951 3.76252 1.50534 0.837457 0.974389 3.19329 4.93615 0.442487 4.77719 1.67967 2.54964 3.9986 3.19418 0.392898 0.742276 5.78489 5.80097 5.3378 5.05919 0.782938 4.0158 4.87865 0.612564 8.98292 1.77532 2.12633 7.60836 0.624775 7.84063 0.392898 3.20355 4.86934 3.4214 3.10477 5.90258 3.90204 0.93045 3.50409 0.924695 4.86698 1.04506 0.701231 1.26525 2.06684 3.31308 0.37899 0.610681 5.41074 0.505143 5.05093 2.03193 6.56444 0.871561 5.53326 3.7581 1.47709 3.05505 4.51467 6.34013 1.479 3.5521 3.63138 3.36195 4.20233 0.644015 8.64606 2.20596 4.00186 1.67798 4.84209 8.15479 2.22306 0.423464 4.92711 3.19329 2.83056 6.34816 8.28095 2.34282 2.06366 1.57127 7.38681 5.85655 0.555508 2.90589 3.50944 2.46526 2.29487 3.18013 3.34776 0.745151 8.11594 2.50538 6.1994 1.67968 0.272166 3.60211 1.9534 0.353765 3.20142 9.43816 6.07054 0.933829 2.49127 2.78148 4.57797 1.41415 3.05057 5.91106 0.693225 4.89328 4.09825 0.789997 6.34816 0.680677 7.51037 2.71681 4.87755 3.80223 4.73671 2.24745 1.38322 0.960562 1.48523 2.33531 4.37802 1.13068 2.76907 5.98382 2.98061 0.485596 2.14179 2.67107 1.57178 0.782938 5.23289 1.98631 5.67991 7.72445 4.29242 0.483932 4.11527 8.56117 1.53601 2.14148 0.751108 5.42206 0.450781 7.10297 1.44499 4.07484 4.77251 0.240956 8.58679 1.28472 2.83799 3.50587 2.87948 3.59537 6.18137 1.479 4.60309 2.14459 2.25804 0.863183 3.20992 2.84763 3.56171 8.7779 0.82965 5.05192 5.99895 9.77935 2.17608 4.41557 3.77647 1.547 9.33233 4.29949 1.74061 6.204 1.06345 0.824141 4.91138 7.59532 5.73698 3.43448 3.70344 0.615642 1.99798 1.51958 2.9081 2.52703 2.96445 0.462029 1.42748 11.9053 0.500773 8.29523 2.1229 2.30604 10.116 2.52703 5.04628 0.975401 3.10798 6.18782 3.80222 2.35263 5.05851 1.91196 6.30848 3.61572 1.72828 9.27889 0.628981 8.9375 2.60396 5.91106 2.41393 2.06459 4.63235 0.333904 7.10031 2.05723 3.74824 7.08186 4.23571 1.3227 1.78261 1.79631 3.56463 1.20858 5.12724 3.14953 3.53074 3.98417 0.443543 5.83805 2.76889 6.96162 2.54446 2.06656 6.66681 2.48664 4.95134 1.02683 2.05438 2.2497 1.547 2.31069 1.91498 5.98548 2.43649 4.60738 1.05372 4.19948 1.26238 9.38733 1.74826 1.91652 6.83605 3.83948 0.911012 7.03855 4.18539 3.0394 2.36922 4.23571 1.74147 2.37815 0.547158 5.4079 5.51502 3.03361 1.5655 5.82152 0.648289 2.3433 4.41788 2.50538 2.08161 6.28301 2.98363 0.779804 7.43827 0.476456 0.0798735 1.47836 5.80097 3.47391 1.91196 0.191016 1.03169 6.07524 3.34572 1.65651 3.18635 4.91138 7.3395 2.05542 4.69131 7.06456 0.0984102 1.97569 7.3395 0.824141 2.17371 2.80382 2.78851 2.13105 6.03373 0.930531 4.5578 7.18085 2.89119 1.97881 2.03193 1.60124 9.67572 0.406754 2.04358 8.20054 0.628488 1.21588 6.67756 0.309869 5.89006 1.04678 2.94871 0.196536 9.31899 0.66756 1.37428 1.80999 7.35264 1.04864 1.56474 0.615996 5.10853 3.89312 2.91049 6.90777 4.13026 3.23506 3.41575 0.443381 7.09288 7.22339 1.80224 4.98857 2.54536 4.77504 4.65275 2.07206 0.459244 1.38241 5.4938 4.25518 2.37256 1.55329 4.56278 2.49966 2.65721 2.83568 4.48569 3.34236 6.27927 2.46285 1.18925 1.41415 0.135545 1.21471 6.07524 0.425836 1.28386 4.47104 0.965901 4.19276 3.80223 3.04975 0.485596 0.186081 1.64566 2.82438 1.09238 3.57174 3.87428 3.3778 6.22667 3.2119 4.42088 0.51771 1.89112 8.39234 1.89815 1.29868 7.10031 2.49643 5.29474 7.22202 4.16674 0.924695 0.821906 3.58027 7.55075 6.99212 1.9325 1.29823 2.85723 2.08161 1.04035 3.74824 0.805655 2.99955 5.51473 5.26383 2.43392 5.65529 0.412381 0.902658 6.01239 0.51131 4.78169 1.27578 1.255 0.761616 5.02117 1.13741 0.211981 2.74888 2.36305 6.36733 4.11663 4.25518 0.614726 2.19061 0.82965 2.04098 1.60708 2.35035 1.53889 4.8013 1.9325 2.25699 2.83056 2.54964 2.49966 0.380842 4.78667 3.57174 1.24652 7.87565 7.82659 0.406754 1.95995 0.432632 3.5521 6.18137 1.03262 2.12633 1.66701 4.60738 1.06584 0.465639 6.79301 3.75394 1.0458 1.38724 5.29474 7.11155 4.07951 3.10975 3.00848 0.249603 6.1797 1.62734 9.48585 1.65651 5.23018 4.09825 0.877533 4.27564 1.79205 8.15479 2.25699 6.99212 2.04868 3.63422 0.523073 5.61496 1.43612 10.6735 4.56278 6.03868 4.65275 4.11663 0.415762 0.380842 4.06121 0.771443 3.1194 2.19475 2.90845 8.91825 0.447779 0.814844 10.6735 1.76177 3.49163 1.83683 4.51467 3.23993 1.78261 3.12661 2.07937 5.33571 0.70455 5.52338 0.665649 1.4239 4.53992 3.27511 4.64242 3.39782 3.7581 1.80731 1.21173 0.742276 7.84063 7.08954 7.58757 1.00725 3.39257 1.48377 1.42816 6.00629 3.76316 0.716667 5.04293 1.13975 2.7266 8.29055 0.539658 0.749614 8.64606 0.211911 0.235131 1.17896 3.93883 5.10237 1.09572 1.19255 3.43448 7.31575 8.60583 0.186081 2.98061 2.6181 3.18432 3.19744 1.42816 0.974389 3.12877 0.443543 4.74673 0.693225 4.80957 3.90421 3.48037 3.8336 2.17371 3.07894 2.82438 4.3112 4.16638 6.67455 4.09297 5.7231 2.68423 2.18611 6.46706 1.69909 4.82154 0.404163 3.63401 3.75394 1.7595 2.16819 3.48155 3.41642 6.83605 0.321188 3.33813 0.372125 3.99807 3.39086 10.116 0.439151 1.96803 2.6097 2.86726 2.30891 3.0311 4.27564 3.97905 0.447878 5.98548 5.36599 6.01239 10.132 3.77836 4.74673 3.98417 1.11685 2.36045 2.33531 6.58993 2.09667 3.72506 2.00302 1.3227 5.51502 1.21295 5.0402 0.289376 4.73884 3.12661 1.55329 5.02817 3.89008 2.07206 6.03868 1.64061 10.315 0.304716 0.150626 1.28386 10.378 0.868921 3.33358 10.9984 4.86698 3.32728 1.00725 2.67107 2.46129 4.29429 0.733403 2.89779 5.99992 3.50587 5.58964 0.933153 3.10975 0.421154 6.87845 1.38724 1.13434 6.4959 1.14013 3.85008 7.22202 1.00821 5.33571 4.86227 3.92364 1.27578 0.514719 1.1254 7.09288 0.735187 1.96037 2.99249 3.80585 0.424397 2.35781 7.00212 0.17294 0.187328 3.63138 0.432632 5.22027 1.86975 5.02817 2.37256 5.51524 6.08531 0.340396 3.78769 2.52778 2.82684 7.10297 3.02195 8.9375 0.246565 0.493794 6.14126 1.48377 2.55655 1.16682 6.95515 2.73699 1.35229 4.39324 2.57769 3.49163 4.89067 3.19794 2.35263 3.0412 0.774903 7.05987 4.89599 7.39324 1.82493 0.184528 1.64061 6.59555 0.724827 0.516285 4.04718 2.78148 2.60396 5.09554 0.298517 2.13744 5.48114 2.00958 3.18432 3.77836 2.61942 2.76907 8.95137 0.615996 1.35758 0.419266 2.55606 3.20142 5.04293 2.74119 0.275707 2.31605 1.88257 9.02394 2.59692 6.08531 2.04355 0.66756 2.64044 2.00962 3.9781 1.28866 3.84298 7.62904 0.514719 1.08099 3.56171 1.60284 0.308576 3.44323 5.28715 4.29242 0.648647 3.60211 3.19744 2.00958 0.850646 1.96587 2.66014 6.00629 0.933829 6.0563 1.32501 3.53847 2.81226 5.14655 2.47054 5.83805 3.12877 0.837457 5.11412 1.03422 1.57178 5.99992 2.26155 1.59436 3.00838 4.0158 3.10572 6.85181 4.70427 2.24745 2.67828 1.60708 1.09238 6.67455 3.94302 0.289376 0.453264 6.88783 1.24652 3.4548 6.18015 1.06965 1.90814 0.609923 8.1343 5.0402 6.06861 6.91936 2.83568 1.45753 0.453264 5.01692 2.36922 2.06302 3.83948 3.41642 0.211911 0.644015 7.4986 2.17291 3.19716 1.27731 6.78707 0.261463 3.9986 1.47836 2.00937 2.5105 2.57769 7.2729 9.27889 2.77029 1.14106 1.63729 0.249603 8.37441 6.36941 4.64242 4.33679 2.93961 0.494104 2.49275 1.7595 7.11155 3.58027 5.69731 3.39513 0.856382 1.00454 1.15646 6.00432 1.08901 3.86096 7.47071 3.95555 4.23381 3.21306 2.43392 1.31593 0.114614 1.14013 3.3836 7.24027 1.59548 1.67223 3.90421 4.54713 1.71095 2.81737 3.44883 2.64044 9.31899 5.11412 1.50534 4.48853 6.79736 2.24025 2.86537 6.22816 1.37244 0.948583 0.0476042 11.3488 1.37244 7.45894 0.645731 4.04608 1.02683 6.43964 0.493989 7.60836 1.03262 2.51489 8.58679 1.76177 1.43612 1.64024 2.80615 4.72648 4.89067 4.8248 2.99249 1.33093 4.10662 1.54616 4.5578 7.51037 2.41204 1.25851 4.54713 4.80957 1.80731 6.34013 1.83683 3.0412 3.80222 4.7929 3.11663 0.807455 5.82511 3.81764 6.46643 2.60746 7.89124 2.02637 0.610681 7.32522 1.76544 6.6572 1.51747 0.885607 3.29648 2.78851 3.95254 2.09893 3.66225 1.06965 3.52914 0.871561 4.04475 3.97905 0.877533 7.55075 0.0798735 9.04879 0.825437 0.523876 0.465639 7.62109 1.16171 3.33358 7.58757 4.92711 2.81878 3.96192 4.93615 2.12987 2.74888 3.35082 2.96777 5.23138 1.03169 13.1412 0.25727 4.06859 10.378 0.425836 3.1194 5.31807 5.17445 0.93045 1.69172 9.1074 5.89006 6.00137 1.40747 1.11706 4.7719 1.11706 6.25975 4.76904 2.13461 2.52778 1.70093 0.361621 1.21471 7.06833 2.56228 2.35873 5.78098 3.24528 8.77712 0.734581 2.24025 0.547048 7.18085 1.54616 2.55606 7.94686 3.22185 0.536469 1.46435 9.43816 3.87862 4.01851 3.86921 3.95555 6.4959 2.18611 7.28622 0.457768 3.837 0.426408 4.60576 2.0818 4.09992 1.51747 3.70239 2.35558 1.22503 3.51003 0.426458 3.41575 1.12092 6.28692 0.825437 7.08954 6.14126 1.40747 5.93111 3.43821 2.97568 6.25975 4.84209 7.27144 0.69797 7.4986 0.377201 1.66534 3.76035 2.30891 1.91498 8.12542 0.494104 5.13889 0.909109 2.01998 3.19716 1.17149 3.41593 2.5105 3.38751 2.29352 4.21822 2.80674 4.62472 1.16682 1.2335 6.51943 4.76923 2.06459 4.67416 4.41557 0.519974 0.968566 0.113981 1.0204 2.82218 3.10798 4.21939 1.5059 6.46643 3.91342 0.857462 2.76903 1.95891 4.58034 5.85655 2.99988 1.09961 5.7231 1.67644 0.895577 9.90846 2.35191 7.39324 3.5685 2.05323 7.9075 1.0599 2.6097 5.18988 0.676306 0.273427 2.91389 1.85848 2.43447 2.90526 0.606528 5.57133 1.86943 4.7755 4.13026 1.1254 7.62904 0.631132 2.77029 1.72828 2.09504 1.53748 4.42418 8.22829 5.58034 6.59222 2.46285 0.99776 0.539658 2.84112 0.639502 7.93795 4.47468 0.0892714 0.803172 2.04358 7.82659 3.59537 3.78672 6.73618 2.37636 0.991905 2.26258 4.60576 3.39655 1.44499 2.82684 2.13461 2.88167 0.911012 5.01692 3.48155 3.66853 2.43447 4.81344 0.304716 2.62473 6.51943 6.22816 5.76524 7.45894 1.07561 9.75243 1.53748 0.363415 2.60746 4.44672 2.26155 2.89779 2.80615 4.25894 4.94038 4.07187 1.54647 0.25727 1.5777 0.547048 11.3488 0.195336 3.95254 6.74936 2.89119 0.591653 7.4916 3.18013 4.29471 3.20992 1.67968 0.767347 4.29429 3.52568 6.79547 4.09324 0.340396 0.450781 6.21661 1.52411 7.00212 2.68423 1.09961 2.30207 2.90845 4.00343 7.28622 2.76372 3.56463 2.88124 3.3872 4.82154 3.82778 6.08139 0.439151 2.30604 3.9091 4.00186 2.97473 6.88983 3.43568 2.05323 1.9862 2.00125 0.140513 4.47077 1.08901 1.99301 3.94903 9.38733 1.41593 4.65048 4.21412 0.960562 2.81081 2.81226 2.57539 1.22848 7.09997 0.931043 5.82152 5.07599 3.89312 4.04575 1.70593 3.35082 0.211981 7.88676 2.35873 4.40817 0.774903 2.29812 1.61415 1.9862 0.273427 4.73117 3.90517 6.5763 4.28132 7.35264 0.803172 8.74496 3.00119 8.20054 3.40761 4.15397 3.36195 0.187328 3.76363 8.74768 2.81767 6.39104 1.27352 2.81878 0.423464 1.11024 0.745151 0.377049 1.95871 2.91389 1.3337 0.639502 2.25804 1.134 1.4392 6.22667 1.21484 3.54531 0.676482 5.22027 1.95995 9.67572 1.57202 2.01634 4.89854 0.453433 3.48101 10.3882 3.80585 4.8248 0.930531 5.05093 6.19101 1.48523 4.21412 2.08906 3.30472 6.58993 0.333904 0.260968 10.132 0.902658 0.934929 7.53039 3.48296 2.49643 1.60284 2.84763 4.29471 2.29487 7.31958 0.260968 7.08186 1.04035 4.12764 0.51131 5.36599 0.716667 6.70182 0.946478 1.47438 1.03088 5.10905 2.74119 3.75072 0.965901 4.97961 0.377049 3.3778 1.52375 2.29352 5.63539 1.38322 4.70427 0.915867 0.483932 5.28715 2.22026 1.255 3.92364 1.85906 4.3112 1.64566 8.60583 3.07894 6.03373 1.62232 0.226869 1.62734 4.89328 0.375291 6.21661 4.77251 1.34923 8.39234 1.90814 3.66225 0.389064 3.48101 0.221387 8.07791 1.69401 5.10237 4.61861 1.9534 0.648647 7.72445 1.70134 1.3308 4.04555 1.7993 6.66681 0.0899234 5.84605 0.863183 3.42041 5.53326 3.52914 6.18015 0.633869 0.591653 4.7929 6.30848 3.47391 5.78489 1.21173 1.21295 5.4079 0.626707 3.90517 1.80999 1.55208 6.06861 0.676482 8.26916 1.70093 3.78769 4.09324 2.35781 0.868921 4.06859 1.54647 4.61159 0.92413 6.59555 0.402465 7.09648 0.885607 4.09992 3.23506 4.7755 5.15595 3.19107 4.18051 2.08906 4.65048 0.334342 8.23332 1.26525 2.74653 6.90777 1.13068 0.309397 2.74504 4.04575 5.10853 8.95137 4.12764 5.26383 3.08399 1.31593 4.78169 5.46399 0.606528 4.67611 5.35204 1.95557 2.41165 4.47468 5.51524 4.48569 6.91936 1.55208 1.37428 2.04355 4.47104 0.150626 4.81344 1.85848 1.95871 4.97961 1.4392 6.38669 0.874641 0.097698 3.19107 2.39711 3.2119 0.226869 3.23272 4.29949 3.18635 9.48585 4.62472 0.82707 1.32501 3.35632 6.95515 0.92413 7.65074 0.795631 3.5685 4.89599 0.900377 0.724827 4.16674 3.85008 0.114614 3.08399 5.51473 2.79376 3.10477 4.15287 3.03361 0.353765 4.61861 3.93883 3.31308 1.08872 4.87865 3.00838 8.20239 4.33679 4.33679 3.27511 0.349264 6.67756 2.11249 3.52568 2.46129 2.14179 3.04975 4.87755 4.71935 0.993289 1.3969 1.11685 3.53074 0.300718 1.22848 0.936397 6.36836 4.61159 4.07187 0.7178 1.16907 7.65074 1.46435 1.0418 0.108909 2.73699 3.35632 6.0563 6.07054 1.67798 3.9091 2.1229 4.04832 7.27144 0.857462 10.2995 0.450191 1.42748 2.20399 7.22339 1.88374 4.07354 2.00759 1.54305 4.09305 1.70134 5.67991 1.64024 5.61496 1.45827 7.52738 4.25894 1.00821 6.36733 4.4966 2.88124 1.79631 3.23993 1.3337 5.57133 5.46399 7.93795 0.309869 0.349264 4.53992 1.37696 5.93111 6.00137 3.86921 0.895188 0.899932 3.27009 3.37823 4.23381 0.909109 5.29633 2.94871 1.97906 9.69676 0.779804 6.80762 1.35758 1.56474 2.74653 0.701231 5.15315 3.63401 5.55866 1.94197 3.87862 1.13434 1.0458 0.37935 8.74768 2.31238 5.28778 3.84748 2.74504 7.4234 0.899932 3.78188 2.96777 1.70593 0.184528 4.63235 4.76923 2.62473 10.315 4.86934 5.0153 0.647869 0.442487 3.96192 1.27352 1.49255 4.3942 1.05372 1.66701 1.77532 0.884867 7.06456 0.610085 5.58034 2.33682 5.35204 4.26867 1.27022 9.42099 0.921543 1.47709 3.39782 0.624775 6.88843 1.16171 0.806636 7.43827 5.15315 1.04506 10.9984 2.56228 3.76214 0.516285 0.900377 7.05987 4.40817 0.135545 4.57797 4.04718 3.76214 7.06833 5.34394 8.22829 2.40913 0.648289 0.931043 5.12087 0.209293 8.12542 4.19948 4.3942 4.69131 1.06345 1.26426 8.91825 2.30207 2.99988 7.38681 0.719148 5.28778 3.3105 7.53039 2.36663 0.309397 4.37802 2.00302 1.70313 3.27009 7.4234 6.12923 4.07354 1.98631 0.915867 6.85181 0.447878 9.04879 0.476456 0.806636 7.62109 1.06584 2.43649 1.53795 8.35816 0.874641 0.69073 3.84748 2.36663 0.934929 0.412381 1.134 2.14459 3.62404 3.40761 0.37935 0.69073 6.38669 1.67967 4.39782 4.64067 1.35229 0.108909 3.89723 1.53889 5.76908 0.948583 6.43964 4.95134 2.78232 5.84605 0.76548 0.905744 1.69172 3.90204 1.07677 0.745191 1.50052 4.86282 0.69176 2.40439 7.24027 3.73126 2.90589 1.28908 6.5763 0.626707 0.547158 7.55991 0.493794 8.20956 5.58964 2.83799 0.976976 1.12092 3.42723 2.3433 2.40913 4.42418 9.75243 3.26051 1.01365 3.56954 2.95211 3.05299 6.83843 0.789997 5.23018 2.05542 1.97569 1.81934 8.28095 2.6181 5.23289 5.05919 0.62565 0.792858 1.77691 6.74936 4.04475 6.56444 1.97881 6.40093 6.66586 1.67644 4.09297 0.626675 4.40109 2.01998 9.69676 0.219954 1.21484 1.60124 6.90714 1.27731 0.246565 0.628981 8.37441 3.00848 0.933153 8.20956 3.20355 3.19418 0.261463 2.24115 3.57705 5.0153 2.24115 7.2729 4.39324 4.64067 3.76963 2.81081 5.98382 2.61942 2.49127 5.14655 1.53601 5.26758 1.03088 6.28208 5.95813 3.09232 7.84126 0.761616 2.22026 7.31575 1.77691 0.447779 1.26426 6.06474 1.20858 2.76372 1.69909 6.0727 2.85723 3.61161 3.22185 2.33358 6.28301 2.04098 9.77935 1.13263 2.00759 6.12923 3.10572 3.76316 2.66014 2.44342 2.65317 6.70182 4.73671 3.87428 4.78667 0.415762 2.35035 2.67828 2.95211 3.51287 0.751108 2.46057 2.30512 0.745191 6.43877 5.50308 2.34282 1.81934 0.0984102 0.884867 8.98292 4.42088 2.39711 5.15595 1.41593 1.67899 5.57759 2.91049 7.88676 1.13741 6.96534 3.09232 0.792858 1.76204 0.334342 1.74147 5.12724 6.06474 0.719148 1.57127 4.19944 3.42041 8.7779 1.08099 0.424397 6.19101 0.505143 2.69504 2.05438 4.04608 1.17117 3.08338 0.490605 8.29871 3.76252 6.1797 1.63729 2.34399 4.48853 5.57759 4.77003 4.21822 1.52375 0.51771 2.11187 2.91076 3.86096 4.47077 7.07529 1.88991 2.09667 3.30472 4.18051 0.097698 8.35816 3.63422 5.6173 0.442749 0.221387 0.453433 1.95963 6.80625 1.51958 6.47352 1.95963 4.89854 6.77726 2.06656 6.54883 3.837 4.727 0.76548 0.0899234 1.76204 0.62565 5.3378 1.08872 2.06684 8.23332 1.08061 1.56041 1.17149 2.17291 0.69797 4.04832 8.29523 2.89334 1.95557 2.33682 2.84112 8.29055 4.77719 0.647869 3.57705 3.76963 4.39782 0.633869 3.4548 1.53704 1.27022 0.313349 2.81767 3.34776 7.4916 3.32728 5.41074 2.02637 2.91 2.55655 3.39257 0.300718 3.14953 2.47054 2.01902 5.12087 7.09997 0.0995465 5.82511 4.88691 9.90846 5.69731 0.821906 3.50409 5.17445 5.22689 0.610085 1.15878 4.67416 2.41393 3.05057 1.18925 6.59222 1.53704 8.1343 3.15282 0.799047 9.42099 0.80862 5.23138 3.78188 0.895188 4.01851 1.94197 2.65721 7.87565 6.88783 1.45753 2.9081 6.77726 2.01634 2.5181 5.04628 1.03422 6.79736 2.34399 1.14106 0.631132 5.34394 2.01902 1.28472 2.51489 6.79301 0.523876 6.28692 0.976976 3.05299 6.43877 3.73126 3.3836 1.25851 1.85149 4.60309 4.20233 4.15397 3.62404 3.91342 3.81764 0.0995465 0.895577 0.795631 1.16907 1.85977 10.2995 3.50944 7.55991 2.37815 4.19944 0.548225 8.11594 1.11024 2.22306 1.79205 3.0311 3.76035 3.94903 4.83785 4.04555 2.78232 0.591248 1.74826 0.404163 3.3872 4.4966 2.36305 2.12987 0.80862 5.55866 0.377201 0.209293 6.204 0.974958 0.402465 1.86943 3.84298 8.13843 0.241088 9.33233 2.2497 2.69504 0.58777 5.97894 2.54446 3.56066 0.889233 3.78672 0.426408 6.54883 2.31238 3.76363 0.17294 1.52411 0.375291 1.89112 3.48296 3.3105 2.93961 4.33679 1.21588 5.29633 5.13889 0.313349 6.88843 3.4214 1.49255 6.39104 0.0892714 2.41165 2.89334 2.7266 2.23761 8.74496 4.41788 3.42723 1.07561 0.733403 0.767347 6.1994 0.609923 8.07791 0.442749 6.92189 3.15282 
</DataArray>
<DataArray type="Float64" Name="wall variable 0" format="ascii">