<VTKFile type="UnstructuredGrid" version="0.1">
<UnstructuredGrid>
<Piece  NumberOfPoints="    3411" NumberOfCells="    2499">
<Points>
<DataArray type="Float64" NumberOfComponents="3" format="ascii">
12.9392 32.7683 0 
15.7645 13.5823 0 
-17.9825 -21.4351 0 
40.4528 18.8497 0 
16.4992 5.30112 0 
-21.7675 1.77998 0 
-29.0784 29.9764 0 
55.7275 22.7333 0 
53.1377 -3.50919 0 
3.69989 -49.2995 0 
26.2165 -1.7735 0 
5.82696 30.971 0 
0.147338 -58.9534 0 
48.1575 -12.597 0 
27.9639 27.0185 0 
5.55338 -19.6023 0 
-40.8027 35.2545 0 
-12.7079 33.8423 0 
-47.1314 24.4922 0 
-45.3585 26.3423 0 
-7.15035 53.2592 0 
36.3039 15.4034 0 
52.5137 1.02443 0 
11.6558 1.70811 0 
2.88874 -58.654 0 
-22.4473 21.8978 0 
-15.4329 -21.8437 0 
16.4932 -49.9815 0 
16.7243 -18.4426 0 
-1.9447 -42.5212 0 
3.33725 -35.6889 0 
-32.1851 -36.2482 0 
-55.2505 -23.2071 0 
-55.4312 -3.85162 0 
-53.8473 -28.4436 0 
-12.4798 -26.8846 0 
-14.7725 48.2533 0 
17.5233 12.9451 0 
-9.79442 8.38058 0 
-39.9782 5.46443 0 
-31.0964 -37.0797 0 
-14.1391 -38.9983 0 
-0.699842 -19.5962 0 
-41.79 -21.5185 0 
-24.1903 38.8143 0 
-10.4193 43.7376 0 
-23.0412 -0.701426 0 
53.1752 10.1318 0 
9.72243 40.3516 0 
-23.1244 22.4965 0 
4.71226 37.6 0 
-1.95145 -59.11 0 
-48.1196 -17.7366 0 
37.063 5.21752 0 
-35.0815 28.0666 0 
6.83536 -62.6182 0 
31.9371 36.2904 0 
19.4937 18.9406 0 
24.3742 -51.5571 0 
11.927 -57.0683 0 
-36.9963 42.028 0 
22.3148 -59.1828 0 
-1.3451 -58.9819 0 
-8.01222 -0.725641 0 
-21.8756 46.8834 0 
29.2769 -15.7884 0 
45.8511 -19.8434 0 
44.2558 -34.4062 0 
45.3762 -33.9111 0 
-34.818 22.741 0 
27.4844 -7.33844 0 
-22.9884 -10.5996 0 
6.13877 -50.8381 0 
-41.3492 23.832 0 
32.781 5.6659 0 
36.2137 -5.47218 0 
-53.8733 -18.5563 0 
-34.4483 24.0284 0 
-8.14971 -39.2023 0 
13.7123 2.42412 0 
-6.61281 15.8502 0 
19.0696 28.8601 0 
-19.8709 -19.9141 0 
-36.969 14.3719 0 
-1.31787 -15.6218 0 
3.24322 50.3451 0 
58.9061 19.1727 0 
-50.9106 21.9513 0 
57.2395 24.6718 0 
-1.8515 -39.438 0 
-40.3351 -23.4459 0 
-12.9715 16.2979 0 
44.0295 11.7005 0 
14.7042 23.7895 0 
-43.2046 -18.3103 0 
44.8617 40.788 0 
59.0259 -4.36756 0 
-62.3383 -2.81601 0 
22.3851 58.1283 0 
-46.225 3.07072 0 
14.5476 -56.872 0 
-3.96143 1.80993 0 
-28.0558 46.2171 0 
-28.5085 -9.12149 0 
24.8161 1.68526 0 
-26.9864 -0.542346 0 
29.2418 29.792 0 
21.4167 -1.704 0 
41.4378 20.2183 0 
-37.1938 31.3675 0 
-2.44535 -7.27885 0 
-34.2903 24.2519 0 
-14.4058 10.2798 0 
53.651 -15.9803 0 
32.4571 34.8787 0 
-0.318806 -27.649 0 
-35.7762 42.5222 0 
14.8773 -49.5624 0 
-10.8745 -45.1746 0 
-4.93038 53.3175 0 
60.8612 13.1102 0 
14.3479 -1.28068 0 
-47.0901 25.6241 0 
-1.87947 23.1785 0 
15.4248 -47.3262 0 
-2.97811 -4.33015 0 
-32.264 -42.7039 0 
34.8957 20.2562 0 
9.61939 11.3414 0 
-53.1407 -8.72718 0 
22.833 46.2139 0 
-44.4036 -2.51878 0 
22.0039 8.40967 0 
-23.9696 -37.4746 0 
-8.2885 -5.33242 0 
-37.3605 4.78769 0 
-21.4407 -38.9732 0 
34.2582 -47.9881 0 
8.86635 17.3229 0 
7.67081 -5.13278 0 
32.5249 53.182 0 
-57.8838 12.9373 0 
22.8306 44.3918 0 
-12.4092 33.5421 0 
-24.8156 -5.95896 0 
-23.3652 28.7331 0 
-54.4725 26.2818 0 
-48.4232 -21.9907 0 
-50.8634 -4.01174 0 
0.164699 49.4605 0 
34.8673 40.8376 0 
59.3226 -13.6237 0 
-54.0183 -5.15743 0 
20.9605 -31.7389 0 
-45.0933 -37.7376 0 
29.9897 19.4692 0 
17.8239 37.3239 0 
39.1077 24.353 0 
-47.9475 40.9142 0 
33.4313 12.8958 0 
-44.9845 -8.1712 0 
-24.7541 -29.3601 0 
39.0931 -0.918202 0 
16.2857 30.4617 0 
-6.77035 -57.0128 0 
43.8562 -13.1538 0 
38.0606 26.7341 0 
35.266 -36.3311 0 
2.70454 35.3115 0 
-34.7794 -50.9486 0 
53.2948 14.2582 0 
17.3426 21.987 0 
43.0118 45.1285 0 
-26.0107 -52.056 0 
12.2729 -15.1391 0 
-18.3989 39.2578 0 
-28.6842 50.9905 0 
-55.1588 5.47285 0 
21.34 -37.4962 0 
29.1804 -17.419 0 
7.48952 -34.3193 0 
1.75313 47.7004 0 
-16.6268 43.0347 0 
-2.73833 8.3683 0 
-22.7943 38.4895 0 
44.2288 -42.7754 0 
28.8267 -29.4573 0 
21.3498 59.0907 0 
21.9127 -21.1545 0 
-54.9773 -26.5026 0 
4.73106 44.1621 0 
29.7896 11.8333 0 
-11.2416 -33.7601 0 
4.24715 57.6581 0 
-54.5128 10.5347 0 
35.2203 20.7836 0 
12.2972 24.4316 0 
-38.8117 18.1925 0 
7.02214 8.7439 0 
49.4539 -24.1859 0 
12.5631 45.668 0 
59.3327 -5.43097 0 
-28.242 23.2209 0 
-29.3698 -29.8472 0 
-8.15484 -22.5344 0 
-3.29129 28.8749 0 
-51.0605 -27.5479 0 
43.2961 -34.4344 0 
-4.45732 -10.0761 0 
0.453722 -27.9049 0 
-9.97316 -45.93 0 
-37.5657 -38.5861 0 
-19.5873 54.5917 0 
14.294 -2.00282 0 
13.0804 49.5451 0 
39.6058 -24.2623 0 
-12.9022 62.5442 0 
-11.5476 37.0155 0 
-16.4284 25.6125 0 
-9.6934 51.6314 0 
-27.777 38.7787 0 
-54.1524 6.50758 0 
46.8501 4.97369 0 
-12.543 14.7405 0 
24.142 48.5214 0 
32.6753 6.01874 0 
24.439 -56.2746 0 
30.6987 32.4959 0 
30.8634 -41.295 0 
-9.02067 45.525 0 
-4.43294 40.3777 0 
32.8611 -4.3804 0 
-27.3355 7.40379 0 
-36.7122 13.9277 0 
-51.2653 -28.7129 0 
-33.0428 4.44435 0 
27.711 48.0142 0 
-15.6409 14.0675 0 
-47.6948 23.3763 0 
-41.863 -32.9978 0 
-24.3878 -34.1952 0 
-2.17834 42.038 0 
-38.0442 -13.9726 0 
14.2667 -2.21262 0 
44.3193 -22.3275 0 
-6.99836 -16.8294 0 
3.99609 24.7728 0 
-11.0683 -42.3853 0 
-19.0972 36.9385 0 
-44.4246 43.5744 0 
-51.2405 0.799631 0 
35.7901 -40.553 0 
14.8057 14.6358 0 
54.2884 -20.956 0 
14.8162 -41.6909 0 
-17.9719 -46.5305 0 
-59.424 -11.4514 0 
-8.82348 24.1479 0 
52.6057 -2.9982 0 
-28.9896 -28.7931 0 
-33.1539 -36.1227 0 
11.5635 -14.5811 0 
21.2273 26.1076 0 
44.0692 -2.22344 0 
7.6122 -32.3109 0 
31.901 -20.434 0 
-16.6114 19.7887 0 
-27.1061 -42.0195 0 
-15.112 1.27506 0 
53.4319 -28.6835 0 
-26.251 53.2057 0 
-34.0339 -52.0671 0 
-28.7786 -4.4545 0 
-44.769 -40.41 0 
29.2578 19.0051 0 
-0.0841606 -36.3834 0 
-32.1601 -44.5069 0 
22.6521 -3.49485 0 
-21.7725 45.4278 0 
-11.988 -9.70414 0 
-16.2676 35.5027 0 
10.0258 34.5785 0 
-10.0676 -33.2062 0 
35.0785 -9.11942 0 
17.7965 -12.0514 0 
-16.8733 48.3957 0 
48.3771 -2.42234 0 
-52.2794 -17.8852 0 
39.3913 -7.27783 0 
-28.3978 19.2053 0 
-36.6144 -3.7332 0 
-8.33253 -49.3213 0 
-6.55212 33.7637 0 
-34.2194 31.9555 0 
-55.1147 10.6833 0 
6.9082 6.36031 0 
-22.387 -52.4433 0 
0.486431 48.4602 0 
-20.532 27.4973 0 
-10.1777 -55.4485 0 
-14.7165 14.5602 0 
13.4479 37.7212 0 
-13.8095 -55.7428 0 
42.3097 18.6117 0 
-48.5155 15.1716 0 
37.2771 -31.318 0 
13.1462 59.0176 0 
3.1658 25.5216 0 
17.2745 45.9249 0 
40.9985 47.171 0 
52.9124 14.3605 0 
-16.6259 -2.69676 0 
-55.7748 -0.0816212 0 
23.1794 -51.6884 0 
27.4334 -9.66019 0 
-45.6828 8.25513 0 
-30.1771 24.5861 0 
-10.9895 -25.0646 0 
54.894 -17.8783 0 
36.4496 13.3758 0 
44.4214 -41.6113 0 
54.1883 -12.3982 0 
15.1585 -35.5775 0 
42.805 3.582 0 
31.5841 40.0856 0 
-1.02464 -5.43462 0 
-18.1913 -15.489 0 
12.9421 -41.1674 0 
35.0537 19.4698 0 
-46.5591 2.17206 0 
31.7526 -21.7261 0 
-36.6204 -3.76807 0 
3.74711 -16.0349 0 
-44.0775 -47.0154 0 
33.7776 48.5605 0 
33.4997 -34.671 0 
-48.869 14.4658 0 
-33.9987 50.3642 0 
0.0618361 58.9593 0 
-36.4894 30.0926 0 
-8.72288 52.5392 0 
-0.649347 26.7516 0 
31.8943 -21.3351 0 
1.83291 35.2024 0 
-12.531 -55.7649 0 
29.3789 53.3382 0 
-3.71269 31.9828 0 
1.26097 -17.8239 0 
-15.1121 10.7146 0 
49.1926 15.7684 0 
46.6528 6.79654 0 
-28.3019 10.5328 0 
-26.2622 11.2876 0 
-5.24984 -10.3721 0 
14.5237 -20.0149 0 
-28.2638 40.6475 0 
8.48388 53.9336 0 
-0.234618 49.5959 0 
-10.9291 -24.6579 0 
25.2477 -54.9849 0 
10.2076 -10.9169 0 
3.91812 24.9054 0 
-53.8753 11.9461 0 
-33.8949 10.3149 0 
22.5038 -24.299 0 
5.22373 30.4977 0 
-13.429 62.4797 0 
30.5717 41.7343 0 
-34.8571 1.3483 0 
1.69916 -0.938262 0 
-4.39477 -33.5699 0 
32.0201 9.13873 0 
-25.7451 -52.099 0 
22.9392 53.9445 0 
6.96056 -33.9084 0 
-36.4803 -41.9207 0 
39.4865 -41.3176 0 
0.693852 -59.0149 0 
-18.369 21.5302 0 
5.47222 -9.60148 0 
58.6003 11.5369 0 
-44.6847 43.5284 0 
21.9952 15.1564 0 
20.163 9.872 0 
13.6203 -14.0825 0 
-48.4811 29.1684 0 
-18.1377 7.55336 0 
39.2039 -13.4357 0 
-16.3194 55.327 0 
-13.3112 -16.8926 0 
-45.3802 20.6152 0 
-7.59199 6.29582 0 
14.7919 51.276 0 
-30.1465 -11.4361 0 
29.4505 -14.9454 0 
-63.5779 4.17289 0 
-10.6082 8.36083 0 
15.4127 -13.2247 0 
-20.3837 54.0572 0 
-32.2268 -44.2771 0 
-10.9877 27.8879 0 
-29.8406 -40.5946 0 
16.6635 59.7419 0 
-19.6875 -54.1501 0 
4.77078 -50.7863 0 
-20.9082 -47.0449 0 
-21.8669 26.8635 0 
-40.6768 18.3433 0 
-6.91992 -16.1582 0 
20.1417 34.2879 0 
-38.1006 -28.6679 0 
-9.01817 9.94931 0 
49.2898 32.1676 0 
-44.3644 33.8654 0 
-30.5711 -53.9497 0 
-25.366 32.6836 0 
-9.00934 -0.0532475 0 
0.338076 15.7385 0 
-10.8934 -43.1859 0 
-11.1505 -57.8342 0 
25.8479 -42.605 0 
-3.22309 0.154033 0 
12.199 5.06854 0 
40.776 21.329 0 
17.0083 -55.5585 0 
-4.51289 38.7182 0 
8.18278 -35.1779 0 
-11.2539 -16.9425 0 
-42.9326 34.7358 0 
13.5578 23.5142 0 
28.8652 -46.9285 0 
-49.9425 31.0902 0 
-0.711365 16.218 0 
-16.4829 14.7122 0 
-34.8997 -2.01708 0 
26.0528 -32.4652 0 
-13.095 -2.11549 0 
9.84451 -10.1692 0 
-39.5839 -6.65775 0 
-53.0482 8.83818 0 
-17.6195 -30.0752 0 
8.86481 -49.4878 0 
12.1324 30.9223 0 
10.9897 -30.1435 0 
33.6612 -34.343 0 
-41.8978 -34.7215 0 
-19.0554 -12.409 0 
-45.3089 -38.5704 0 
-18.7941 -29.5761 0 
-0.149963 16.5143 0 
-28.6959 -8.26555 0 
44.5018 -20.4393 0 
54.3615 2.38727 0 
1.82252 62.0614 0 
41.609 36.6716 0 
31.7414 -35.2414 0 
28.1683 -47.3645 0 
22.5378 -32.5948 0 
-8.32581 -64.5085 0 
28.5748 16.9833 0 
-46.4105 -4.7839 0 
-43.5507 -31.3143 0 
53.3526 29.5241 0 
-0.177351 25.0748 0 
32.6722 -48.0534 0 
20.9364 -38.1303 0 
-0.117377 3.2255 0 
46.5353 22.7007 0 
44.5127 41.6895 0 
23.883 9.19699 0 
-49.7687 -18.5493 0 
1.95836 10.9869 0 
25.7161 -41.5227 0 
17.8438 21.6095 0 
17.4493 -5.34896 0 
-14.2643 -33.4775 0 
-2.436 -35.3397 0 
-15.7091 26.4798 0 
24.5362 -27.1499 0 
4.83177 37.9035 0 
22.1499 58.5225 0 
-8.16795 7.08211 0 
21.6505 -31.7774 0 
-17.6575 -9.30442 0 
17.0274 59.8879 0 
-13.1003 -8.70891 0 
-11.8044 -10.6495 0 
44.2548 -10.6369 0 
8.42685 -21.677 0 
-13.6474 -40.1966 0 
34.5203 4.28625 0 
-44.8416 -26.3654 0 
-4.68342 53.2901 0 
0.401269 -53.0775 0 
[...]
<CellData Scalars="wall variable 0">
<DataArray type="Float64" Name="wall length" format="ascii">
1.673 10.9539 0.911417 0.16792 10.6738 0.324317 0.192929 3.99436 0.603574 5.21418 1.12752 9.19469 3.46035 6.31041 0.804528 0.971224 5.09524 3.46982 3.46029 8.46902 0.339684 1.24338 2.80078 2.7623 2.3649 0.716614 0.987183 3.44344 0.975991 4.68774 5.15622 0.774369 11.6571 0.86033 3.03583 3.5419 6.03276 0.380546 5.05267 2.70899 1.40743 3.14615 8.26372 3.15185 5.2874 1.75059 2.51129 0.774369 0.507932 4.42236 0.323347 6.74207 3.62335 0.343086 3.10985 6.16149 1.43938 1.85875 1.96899 1.80382 0.618948 4.40474 5.30102 1.68498 7.24541 2.31071 1.22721 6.86692 0.914874 1.19432 3.55396 0.659235 5.48295 1.51072 6.95126 1.83491 1.70279 8.4456 0.306852 1.24817 10.1602 0.882132 2.09199 5.08441 4.43395 3.90377 1.91698 2.67979 5.17415 0.681415 2.60701 0.940872 4.96735 0.0275285 2.35101 6.65214 0.564397 1.9103 0.697597 8.5414 3.09958 7.42492 5.18872 4.31993 0.539207 1.75527 2.48719 0.752109 8.08399 0.286548 8.80236 3.96381 2.99293 1.92508 5.39801 5.12695 0.681415 0.802765 7.96702 0.767436 2.99293 2.9873 2.37202 3.26902 4.30741 4.48494 3.19743 1.52619 2.77378 1.62937 3.16366 0.996302 2.89649 0.956608 5.94989 1.33383 1.25493 0.956608 4.13665 5.21534 0.319368 0.955403 9.04368 3.6246 2.66414 0.825345 4.86187 6.27637 0.3851 3.3866 6.52784 0.397077 1.56355 8.46902 0.942873 8.31738 0.989416 6.06891 1.14462 2.76205 1.20192 5.33063 3.93854 0.296226 4.1033 7.9561 3.46065 6.73321 4.70547 5.77738 3.03771 9.73427 1.2786 8.73222 0.464494 3.16901 2.59213 2.47324 2.86991 1.09099 0.841546 4.75325 5.37669 0.568426 5.02983 2.56817 6.97973 0.996302 1.83798 3.27849 1.38275 2.03721 0.452409 7.03156 3.55521 6.67097 2.29707 0.440374 1.66565 2.38045 1.1427 4.63765 7.75597 2.75845 0.3053 12.7483 0.110187 13.7365 0.672362 0.581475 11.3252 0.219828 1.97606 0.987267 3.64872 0.0275285 0.246449 4.42729 2.23657 0.58237 6.04384 0.188798 6.43092 3.23565 0.775256 3.54175 8.10477 1.97418 6.42442 4.77386 4.87331 1.07816 9.68595 1.1865 0.738063 2.08412 5.26906 3.48084 0.101681 0.906056 2.84331 6.85624 2.8461 2.25823 5.18391 3.34842 0.376429 1.14641 6.69188 1.02922 8.95708 0.506391 2.66274 3.7258 2.84978 0.708549 7.00164 6.13375 4.52935 6.16149 0.150612 7.27405 3.11776 3.45539 6.59303 1.98807 5.91012 4.09724 5.55475 0.855178 1.96957 5.18391 2.03511 9.33369 4.20936 7.41808 0.951398 2.21301 5.43156 0.219828 6.01992 3.56338 2.9473 1.42062 1.01129 3.1354 1.06259 0.323347 4.52935 4.29838 1.35004 1.66925 2.38045 2.26695 4.69075 5.08182 2.74915 4.42236 0.923857 2.76253 3.53554 4.09869 2.03827 3.85015 8.70217 7.88122 1.22668 7.1456 6.40849 0.618948 2.79463 0.561154 0.319368 2.70786 1.22721 3.53491 4.90137 11.1102 3.34286 1.37564 1.16088 1.37099 3.93854 4.71413 1.87719 5.73717 1.67196 0.862067 2.12307 8.41202 1.56355 6.62109 0.0568751 6.68524 0.914874 0.116033 0.737154 2.30083 0.339684 0.882396 8.71567 1.15325 1.02342 5.9785 2.06279 1.40601 1.99084 11.0327 0.912274 2.50992 5.03322 4.91927 1.72195 3.20626 0.714843 1.34557 6.9586 7.27301 1.02995 8.39338 1.65723 7.41808 2.9526 0.767436 6.83302 7.68843 0.217177 2.51255 1.92508 0.917198 5.01348 0.983629 4.75608 1.94239 8.97341 0.919055 9.68754 1.82168 7.66168 1.02935 1.97027 3.74733 0.31627 1.75216 3.29949 5.42577 4.55955 0.920098 1.80761 3.62335 2.14693 5.03322 5.06386 0.672143 1.47079 0.58237 4.16519 3.46298 9.02068 1.57584 4.70538 5.3137 1.7953 0.192929 5.15732 2.15032 2.08771 0.807202 4.125 0.470972 0.637227 5.3679 0.327328 9.2465 1.3871 1.39589 1.9164 9.68754 2.27432 7.18927 1.31851 1.2412 0.769205 7.78238 1.04557 2.62432 5.15622 1.89731 2.86991 1.70299 3.88268 0.432874 3.1627 3.2347 0.362627 0.867805 2.96141 1.2412 6.58366 2.75316 4.41026 1.28734 0.803348 2.08971 7.3921 2.88842 3.07472 1.91698 1.19378 2.82781 6.61525 0.440374 8.08097 1.78036 3.708 3.90302 2.74076 3.8141 1.97027 1.12829 3.37851 1.80099 5.08441 0.220374 9.07414 0.776647 1.70299 2.47324 1.2179 0.187411 0.989416 7.39325 1.70683 1.51072 5.48729 3.35794 7.86878 5.38371 2.3649 2.62432 2.43411 4.36617 0.514329 4.93208 3.0785 3.73544 1.29604 13.7365 3.1777 2.67584 1.9887 0.793629 3.26902 6.61113 2.09878 10.8788 2.05263 10.2611 0.510554 8.17295 2.8247 7.61613 1.14957 1.77414 1.38475 0.87206 11.5812 0.1823 2.06279 6.75386 1.64966 2.7843 0.761325 0.403009 0.343086 1.80761 4.42604 0.471083 3.63198 0.854101 8.67429 0.316137 3.58982 1.03 3.34695 4.14734 1.47359 11.1127 0.80466 1.14777 3.6782 0.823317 7.93441 4.31673 3.4754 4.72388 3.08585 0.752109 3.29584 1.21995 6.68524 0.760033 3.46065 4.09631 5.46349 1.68498 0.480195 3.29949 4.07773 0.825345 0.845233 2.11115 5.97368 1.41637 8.41202 0.232943 3.7249 2.91018 4.28355 4.40919 8.97341 0.900968 10.8788 0.615114 1.29629 5.94989 1.25493 3.16569 4.23353 2.08412 1.78036 2.76399 0.306852 2.0974 3.50036 2.54051 5.74317 7.71487 5.08182 0.646599 4.37478 0.737154 1.66925 5.65349 1.22721 0.90513 4.99015 2.32018 3.55521 4.8793 0.563333 2.21352 5.70768 0.758819 0.0503488 0.3053 7.65038 0.305877 3.14579 3.01259 0.727016 3.73595 0.414925 5.11546 5.1592 0.267547 2.74961 1.673 1.7953 5.33861 3.36971 2.45426 7.28166 0.571217 6.5111 7.66168 0.909473 3.55396 7.2951 1.02935 7.2951 1.19432 1.9196 6.00366 0.74455 1.12829 6.35885 2.75538 4.80983 6.65214 2.74519 5.62941 0.548796 4.98889 0.506391 2.25572 0.95759 0.876637 3.65771 1.34535 1.84422 6.83582 0.236858 9.6403 5.08393 0.921431 6.35885 2.35101 3.64872 3.38954 2.69745 3.256 1.14957 3.15585 1.65813 4.48494 3.2347 0.431906 1.5052 2.12262 3.24719 6.86032 1.00173 0.25012 1.47359 1.83907 2.89885 3.09958 1.68637 7.68843 3.20294 6.83312 0.178648 4.09439 0.581475 4.38855 0.586158 5.87584 1.21957 1.22721 0.929604 2.69671 3.03771 2.33507 6.75386 5.9785 9.58913 4.97784 11.1102 0.549855 2.07629 4.42422 0.629023 1.62937 9.98719 1.61392 0.876637 5.03331 5.98935 0.194136 2.40368 4.96101 1.01129 4.56117 5.16444 1.67196 2.38325 1.07816 7.10189 8.99417 2.20031 1.65016 4.59193 3.19743 1.65813 7.62856 4.02727 6.07358 2.45159 5.58384 1.03 2.74961 5.23525 2.44131 0.768838 10.9539 0.854023 12.8209 1.16088 1.495 10.6363 0.478252 4.36896 4.81108 0.210443 1.87938 1.33965 0.971224 7.33372 1.93904 0.845233 2.66414 0.674165 3.45404 0.627153 1.44997 5.73742 5.17324 1.42284 0.708194 1.04557 0.131501 3.44186 3.38751 3.89703 2.51129 3.51514 1.19926 1.12424 3.35794 1.33168 0.504834 11.6571 5.26906 4.23353 3.75563 0.408489 5.91452 0.973972 5.21118 4.14124 1.1865 4.48621 1.87719 1.41637 2.64455 6.12708 1.14641 1.28305 2.48787 0.708563 4.21052 2.56587 1.54481 0.844414 6.24857 8.71567 2.69671 8.08112 2.03721 1.58491 9.73427 1.64966 9.58913 1.02342 0.971313 0.807202 1.1822 1.19211 2.9584 7.31783 0.432874 9.09069 2.48787 6.50062 0.822644 2.43411 3.97265 6.46769 0.586229 2.69136 4.08687 3.27741 5.28017 3.15942 6.48117 1.27065 7.44933 3.71996 0.477281 7.88122 0.440807 0.854101 3.92513 6.03646 2.11734 3.62903 2.64455 1.30491 1.80506 0.676632 0.366671 6.44285 3.55992 8.23945 0.367379 6.48117 0.450544 4.02507 0.52201 7.9561 2.15738 7.8654 2.55998 7.77622 0.80466 7.0261 5.23219 5.71138 1.00137 6.97973 1.11633 3.34286 1.57807 5.34106 0.745917 0.674989 4.84153 5.44767 5.16401 0.676244 10.1602 0.306966 7.3921 2.20788 0.531858 4.76611 3.01259 2.96141 8.13247 0.674165 3.6246 2.47961 0.769205 2.33507 0.464494 0.341723 3.8193 0.94654 4.31574 1.31901 0.563333 6.64261 5.05267 1.6371 1.4382 7.5974 5.99798 3.00489 4.71263 4.04425 1.20463 5.70768 1.13673 8.95708 0.923242 1.11474 5.28017 0.816083 2.15738 0.908962 5.21534 4.0726 0.452409 8.08112 0.929604 2.70786 0.116033 6.86692 5.65349 1.35004 7.71487 3.51851 7.01061 0.676632 0.55988 1.12752 4.39406 2.90651 2.74925 6.00366 1.38544 2.44131 5.60477 0.265458 5.62788 2.26695 1.66565 2.74076 1.01163 4.46631 0.818755 4.19014 0.984195 4.227 2.83471 5.29491 2.75403 5.91012 3.65554 3.44344 5.20802 0.155657 4.86187 4.07773 1.75216 8.40279 0.424589 0.568018 6.67096 1.85875 2.30438 8.73793 2.15637 5.16444 3.58952 1.02995 0.909087 2.35477 2.14939 2.47701 2.62765 2.67941 3.66016 7.65209 1.40743 7.74713 0.712997 0.672143 3.74861 2.77378 1.71292 4.125 0.971313 1.15325 6.24857 7.6358 0.397077 6.98885 0.734712 4.36961 0.517809 6.62109 6.03276 5.14647 0.983629 0.601694 4.16392 0.923857 0.507932 0.634606 10.99 0.812659 2.85944 7.76671 1.19211 1.94038 5.97502 1.17781 0.512374 2.64136 0.90513 2.31071 3.36857 0.779325 1.63547 3.27849 3.27622 3.38751 7.56166 0.549855 4.90137 8.27033 2.48337 1.85612 2.92561 3.34695 5.58384 1.53123 3.46035 4.73984 0.629984 6.57837 3.40645 5.00334 4.04098 5.10799 1.59916 6.9586 1.66724 2.21301 6.88998 6.4328 3.48928 2.10138 0.709739 9.33369 1.95807 2.72373 0.587473 3.48928 3.25457 4.72388 0.507449 4.28402 0.564397 4.80983 1.20569 3.45539 4.69815 4.20286 1.47463 1.9569 3.24719 1.038 4.70538 6.43092 1.47905 0.375975 7.75597 4.20584 1.74046 6.99689 2.49536 2.9473 4.32749 3.62856 2.38325 5.73717 4.48621 9.68595 3.73573 2.75316 0.306966 3.14579 2.28852 7.18927 4.9251 0.548945 3.89703 3.27622 1.83798 3.16366 0.194136 0.991524 4.7591 6.50062 1.28305 0.376429 6.14863 0.984195 8.0066 1.83491 2.95972 2.31632 3.66016 1.10729 3.387 6.58366 1.31851 2.28852 0.305877 2.74455 0.708194 7.31389 4.41026 3.73573 2.27432 2.47961 6.27637 0.155657 0.989262 2.63919 0.131501 7.78238 0.601694 5.01348 6.48362 0.334071 9.01583 0.989262 8.40279 0.31627 3.41145 7.71448 2.43492 0.595338 4.21761 0.646599 4.69075 5.62788 4.05963 3.86443 1.02541 4.36896 5.54762 5.50002 1.42071 3.36971 1.23595 6.57837 0.178963 5.17659 5.03331 0.95759 2.98334 4.3609 3.10985 8.67429 0.440807 8.70217 1.09254 0.150612 0.486429 4.68796 0.669896 6.98885 6.52784 2.83281 6.10333 3.1777 2.43706 2.7003 0.0568751 0.517809 10.7026 0.745406 1.47463 2.00769 0.871339 6.73321 0.760033 2.64771 3.86347 1.4382 2.36759 0.671339 6.42442 1.31901 6.55917 0.713338 2.43492 0.265458 4.08442 3.00489 2.21352 1.20811 7.86967 0.86033 0.504834 1.1391 1.99397 8.17272 3.51514 1.75059 5.35288 0.514329 0.110187 8.51142 5.27602 6.68509 5.87584 0.531858 6.84591 3.89585 4.42729 1.71721 4.37515 0.502231 2.64771 1.97418 3.59631 0.256642 8.87972 6.96761 1.40601 0.1823 1.13698 5.16401 4.29178 4.90131 9.2465 1.28317 0.705721 6.17667 1.44916 5.37669 1.00137 1.59766 2.45962 5.53443 2.87597 7.33372 0.804528 7.09052 1.98849 1.52849 1.85147 0.921325 3.6782 3.13952 6.48893 4.16962 6.87926 2.7003 1.09162 3.15095 1.72195 1.47905 0.188798 1.68825 1.28412 0.968068 2.48337 1.55091 7.83839 5.98118 5.53443 2.79654 3.6792 5.27602 0.586158 6.64261 4.8793 0.643614 1.76497 2.32018 0.582381 0.644401 2.7603 1.37859 3.07807 0.671402 6.67097 4.36961 5.18423 1.44997 1.62494 10.7026 0.161978 0.571217 3.25207 5.10799 0.817103 2.72373 8.31816 3.91682 1.84422 0.875623 4.04391 6.5155 2.64136 5.60928 3.12088 0.582381 4.99015 2.5032 5.54762 0.478252 2.87597 6.27054 1.31336 0.252405 1.04624 0.304424 7.24446 0.450544 3.15942 1.11474 1.54391 6.51233 4.08442 4.46631 5.42223 4.71263 0.737162 4.80214 0.991524 5.98935 5.17659 0.566866 2.43706 6.61113 2.37202 4.62581 2.67979 0.522882 0.0609442 1.09162 3.73197 4.22512 2.7623 2.5576 2.72507 0.94654 1.84526 6.2887 1.39589 0.723359 1.00017 0.123709 0.854023 2.72802 1.99397 4.31673 1.05962 3.37851 0.74455 2.74925 0.581956 7.0261 2.43044 4.29178 5.44767 2.56936 3.07807 5.21418 5.41892 2.84576 4.39406 4.14734 4.73984 3.46982 3.3308 1.83907 0.805207 4.40474 6.40849 0.713953 1.77414 3.256 0.815454 3.46298 2.11936 4.31278 0.973972 4.28355 6.96963 3.53584 1.39908 2.35831 4.61138 1.21995 4.13652 3.58952 4.56117 1.42062 2.49536 0.464271 8.39338 0.375975 7.83839 0.932695 0.643614 7.65038 2.75845 6.63112 4.55955 1.72785 3.73197 3.8193 5.79097 0.723359 1.3871 4.90131 1.1331 5.76351 0.106483 8.41863 1.74046 2.06013 4.62127 3.51851 2.51254 0.286548 1.47991 7.99178 2.83413 0.934826 1.39908 10.6439 1.1391 1.33168 5.48729 5.48295 5.10974 1.84526 0.414925 4.88506 3.59694 1.40004 0.823317 0.921325 5.6418 5.1523 4.13652 3.29584 2.48719 1.89687 1.31336 0.681652 1.25638 0.615114 2.09878 2.41069 3.02612 1.38628 7.89612 4.64579 0.478441 6.73606 1.59067 5.11824 3.37221 5.10166 0.975991 3.65554 1.98807 1.09196 0.256642 1.05457 3.16569 9.04368 2.93671 3.75563 2.87967 4.93208 5.35288 5.2874 2.74455 5.11546 5.6418 1.85147 2.70143 5.89798 0.178648 1.58743 2.10138 0.587473 0.817103 6.88998 3.56338 3.38954 6.04384 1.47079 0.712997 1.76587 1.46608 1.03124 0.568018 4.8133 4.9251 4.80214 2.96173 1.27323 6.61525 0.514002 5.20802 0.987183 4.19901 1.06259 0.49008 4.16962 4.91927 2.14693 6.74207 5.19068 5.11824 3.17115 1.85612 0.968068 4.37705 2.11115 1.93904 5.33354 4.68796 2.96335 8.80236 2.51254 2.90651 2.84576 0.740203 0.951398 1.65723 0.464271 6.99689 8.41863 5.42223 1.01163 3.90302 0.736026 9.71277 4.04425 1.76404 7.15359 2.04353 7.70313 2.30575 3.43947 7.64754 2.9584 7.76671 0.838972 1.18763 0.408489 2.93671 0.955403 0.561154 4.97784 7.48671 0.106483 8.08399 3.08585 3.25457 6.4328 2.03511 0.740203 1.2786 1.58491 1.38275 1.63547 0.731771 3.41145 3.74733 4.26032 4.86926 0.681652 6.27054 1.52849 5.22951 6.17311 0.818755 2.10753 2.0974 8.4456 3.07077 7.44072 0.371296 0.714843 6.98468 1.44069 0.16792 4.62581 2.9873 3.96381 5.17415 1.10088 1.47991 1.23676 3.28738 3.99436 1.63225 5.97502 1.68825 8.10477 3.47125 7.13798 1.28412 7.13798 1.33046 4.18107 4.64579 5.19068 4.83104 4.75325 7.43001 0.875623 1.34535 4.09631 5.77738 0.573476 8.62147 1.51107 0.826886 5.76653 2.35477 2.50145 3.20294 3.25473 0.966659 2.40368 2.15637 3.42623 2.67584 6.10333 5.28978 4.69815 3.11776 2.75403 0.514002 2.82781 3.40645 1.23595 6.5111 0.161978 0.554976 2.35831 0.934826 2.89181 0.677518 1.11633 2.56817 7.72163 4.60868 1.20811 2.91706 1.495 1.37564 0.992785 3.16901 4.83104 3.65771 0.707921 1.62972 7.58265 3.74861 9.02068 0.815454 2.69745 4.30741 5.46349 1.51107 1.17246 3.36857 7.24541 1.66724 1.34557 0.371296 3.31087 1.47617 1.97606 5.43156 3.5419 3.45308 1.49918 4.75608 5.14647 1.79572 4.04391 7.43001 0.841546 5.36755 3.37221 0.555704 7.86878 1.12424 8.17108 3.03924 0.675994 7.27301 1.59916 3.25207 7.28166 0.0609442 9.60354 3.149 8.34615 1.99084 3.15095 0.522882 4.96735 1.12491 5.88701 9.60354 0.737162 9.60054 1.96899 6.67096 2.96173 0.699838 11.1127 0.25012 3.22509 9.44387 1.43316 5.02983 1.43283 2.05263 0.900968 1.94239 1.49918 0.701491 7.72163 2.31528 9.17403 1.2179 2.59213 0.992785 8.3693 0.290163 5.36755 1.09099 1.89731 4.68774 5.10166 2.50282 12.7483 0.0503488 2.52335 5.56389 4.09724 2.25823 1.23676 10.6439 3.53584 5.1523 2.30043 0.731771 7.56166 3.44186 2.63919 7.71448 9.44387 0.948391 0.802765 0.793629 3.82693 0.826886 6.8205 2.16914 0.904143 2.04353 4.97145 2.89181 2.83413 6.26608 0.853158 5.32609 3.0785 2.87967 3.15185 2.74915 2.44735 7.48671 0.629023 0.641532 1.48711 3.97265 2.63446 1.51192 5.34106 2.07691 5.07969 4.99592 2.25572 7.00164 5.67885 2.98334 3.88268 0.776647 6.36646 0.708563 9.09069 2.70143 6.48893 1.9791 0.431906 3.1627 3.387 4.33947 7.39325 8.31738 0.515679 9.46464 0.101681 4.49156 2.63446 4.08687 0.49008 3.1354 4.96101 0.966659 2.83281 6.87926 4.19014 6.17311 1.70279 8.0066 1.76404 4.2189 5.15732 0.324317 0.0359512 4.04098 2.08462 1.37859 8.58171 2.56587 0.882396 6.96761 2.43044 2.50145 0.909087 2.9526 4.20936 0.709739 1.58743 6.83312 1.57807 4.71413 5.33063 0.440903 1.77373 2.07691 3.69432 3.71996 5.03416 0.6325 10.99 1.33383 1.29629 0.738063 4.14124 4.20436 9.98719 3.71445 0.316137 0.699838 3.28207 3.73544 5.32609 5.03331 0.55902 4.36617 0.822644 4.7591 1.40699 1.0603 0.825183 8.60055 0.19249 3.97132 2.7736 1.90868 2.2273 0.236858 2.07629 2.92561 3.17115 1.59067 1.85125 6.24268 3.69622 5.33861 5.3137 1.038 2.12262 0.669896 5.33354 5.73742 5.18423 0.734712 1.43316 6.8205 3.25473 4.38855 0.672362 1.29604 3.28207 4.32193 5.3679 1.44657 2.06013 3.62856 0.554976 8.31816 1.95807 3.4754 4.61138 5.70059 6.98468 3.20626 0.675994 2.45426 1.42071 4.31574 2.72507 5.41632 6.55917 4.3609 5.67885 0.708549 2.21172 1.22668 6.70615 6.83582 3.91682 0.439317 4.77386 0.671339 5.7398 0.825183 4.60868 0.701491 3.45308 3.03583 7.86967 0.123709 2.59411 2.50312 2.55998 2.6875 0.296226 1.37099 12.8209 1.50157 7.27405 1.09254 3.85015 5.91485 3.53491 1.21957 6.68509 1.76497 0.932695 1.55091 8.27033 4.62127 1.44657 0.637227 3.73748 0.366671 7.01061 2.50312 9.0962 1.50148 0.908962 7.77622 8.62147 4.91299 2.16914 4.32105 0.779325 1.17246 2.89885 3.3308 5.09524 1.33965 2.26443 7.42492 3.57223 0.800024 7.10189 0.906056 9.46464 5.23219 0.581956 5.60477 5.23525 0.267547 0.426956 3.62903 2.50168 6.69188 6.12708 3.6792 5.69106 3.07606 1.26605 3.02612 0.980469 2.41069 10.2611 1.43283 0.568426 1.44916 5.98118 0.980469 2.54051 1.36265 3.50823 0.390804 0.83567 2.85451 0.863677 0.316675 6.85624 0.831589 1.24338 2.30083 4.37478 4.21761 7.84474 1.1331 6.17667 5.27492 0.722344 3.17464 2.59549 1.26257 7.9415 2.63427 3.7258 2.58575 1.05962 7.93441 1.40004 0.526884 2.58005 4.43395 1.80099 2.22801 3.53554 5.29423 1.37585 0.278773 6.07358 1.43743 5.33839 3.17329 0.510554 1.21921 7.9415 0.843409 5.30258 6.06891 0.187411 9.17403 3.82573 3.5427 5.17324 0.548945 4.8133 0.424589 1.18687 7.65209 2.31632 7.51228 0.87206 1.55957 8.73222 4.26032 0.920098 6.63112 0.341723 1.63225 9.19469 0.55988 1.80506 2.05273 6.43292 1.17781 3.82573 8.73793 2.01369 0.803348 4.70041 1.07268 5.91485 2.03827 0.477281 3.69432 0.634606 1.1822 2.08771 2.89649 7.03156 4.0726 4.13665 2.30575 2.35791 2.00769 4.20286 1.57584 4.2189 4.45274 5.22951 1.98849 1.93669 1.37585 0.710931 0.334071 5.56389 7.69752 5.55475 1.63563 8.87972 1.09196 6.59303 1.20569 2.75538 0.921431 4.16392 9.01583 0.710931 5.29423 2.76253 1.42284 3.5427 4.70041 1.28734 7.31389 2.91706 8.17272 2.72802 10.6363 5.7398 2.36759 1.6371 0.380546 1.34333 8.60055 3.89585 0.870995 5.30102 0.805207 4.16519 2.23657 4.98889 3.80004 3.56876 2.58575 2.66274 2.08462 5.00334 0.677518 4.97145 7.15359 0.362627 6.86032 1.9569 0.745406 1.62494 0.627153 7.2251 1.34333 8.26372 2.98797 0.729008 4.42748 1.04984 0.19249 6.48362 0.917198 4.40919 1.25638 4.86926 4.45274 1.03124 8.24121 4.37515 1.63563 5.08393 2.58005 6.52376 0.507449 5.28978 1.19378 3.90377 4.42422 6.24268 0.889106 0.764789 6.19589 0.641532 4.32749 4.29838 6.13375 1.50157 1.07268 2.15032 4.32193 0.470972 7.6358 0.844414 1.29958 6.44285 3.73748 2.59411 1.00017 5.79097 3.58665 0.622819 9.0962 4.09439 5.89798 6.01992 11.3252 2.80078 7.84474 0.595338 0.713338 5.41632 2.5576 0.816083 3.27741 0.367379 4.1033 2.6875 7.8654 2.10753 5.29491 5.72598 1.36265 3.50036 0.603574 3.28738 2.30043 1.89687 1.75527 2.96335 5.41892 0.722344 0.994492 4.19901 0.716614 5.38371 0.55902 4.78353 3.37687 0.699245 2.7843 7.31783 7.64754 1.5052 1.9791 3.13952 1.14777 5.71138 0.426956 5.1592 3.69622 3.73595 3.12812 0.697597 4.9492 4.88506 3.48084 5.91452 1.18763 2.44735 4.49156 0.671402 2.56936 4.84153 1.24817 2.76399 8.08097 2.29707 1.40699 6.14863 3.34842 1.13673 1.50148 0.622819 2.66276 2.89782 3.03924 0.394228 3.31087 7.44072 2.7603 3.54783 3.55992 1.29958 1.54481 8.58171 2.21172 2.84978 2.63427 1.21921 1.38475 0.713953 7.1456 1.25094 2.98797 3.14615 1.71292 1.52619 4.59193 6.62448 0.526884 3.59694 4.9492 1.9103 4.28402 6.52376 1.20463 9.71277 3.30863 0.855178 7.69752 2.52335 0.758819 0.705721 6.27961 2.88842 1.27323 0.994492 5.27492 4.32105 6.26608 7.99178 1.10088 1.94038 2.70899 5.99798 0.92242 1.76587 7.74713 3.708 5.74317 0.831589 2.84331 1.96957 3.30863 0.736026 1.9196 6.95126 1.70683 0.555704 2.89782 3.07077 0.911417 0.768838 1.38544 3.58665 5.76351 2.59549 4.8295 1.0603 2.66276 0.853158 4.09869 2.22801 4.02727 3.58982 3.71445 1.53123 2.45159 0.278773 1.93669 7.09052 6.31041 0.246449 8.5414 3.12812 0.727016 4.76611 1.71721 0.706199 1.30491 4.21052 6.36646 9.07414 0.928981 0.867805 7.2251 3.45404 8.13247 0.512374 6.43292 5.63884 5.60928 2.05273 8.23945 3.54783 0.644401 3.12088 5.63884 3.60496 5.97368 4.37705 0.486429 3.3866 0.0359512 10.6738 1.44069 5.70059 5.50002 0.629984 4.31278 0.311647 2.74519 1.61392 4.20436 5.21118 7.51228 2.95972 0.882132 0.676244 1.13698 11.5812 0.439317 6.5155 1.79572 1.05457 3.59631 4.87331 0.573476 4.70547 0.871339 2.35791 7.70313 0.904143 4.91299 1.46608 0.92242 7.5974 3.86347 0.502231 8.24121 1.72785 5.42577 0.480195 3.60496 0.3851 3.46029 4.22512 5.10974 0.659235 0.909473 1.82168 1.9164