<VTKFile type="UnstructuredGrid" version="0.1">
<UnstructuredGrid>
<Piece  NumberOfPoints="    2492" NumberOfCells="     417">
<Points>
<DataArray type="Float64" NumberOfComponents="3" format="ascii">
22.5374 -20.099 0.0
22.8967 -16.8007 0.0
17.1586 -19.069 0.0
19.0261 -23.002 0.0
20.4325 -23.0054 0.0
27.1622 -28.8926 0.0
26.9794 -27.8728 0.0
22.6703 -27.6527 0.0
22.2072 -28.1256 0.0
18.7095 -32.6957 0.0
21.4009 -33.8526 0.0
34.8896 -47.5764 0.0
37.3269 -44.0725 0.0
33.1133 -42.4373 0.0
31.7629 -43.2786 0.0
31.0126 -47.9663 0.0
-55.1128 23.81 0.0
-53.8812 23.9047 0.0
-50.521 30.0927 0.0
-52.1726 31.8735 0.0
-53.5534 30.3848 0.0
-55.1884 25.7478 0.0
29.4965 -4.11802 0.0
30.2951 -5.74314 0.0
32.8866 -4.65019 0.0
34.6561 -3.89871 0.0
35.3643 0.267939 0.0
35.4567 1.37299 0.0
34.7444 2.25128 0.0
34.2005 2.18271 0.0
35.8164 0.126799 0.0
35.1082 -4.03985 0.0
38.3456 -6.56685 0.0
40.3702 -4.06277 0.0
8.19571 48.2897 0.0
8.64654 47.8006 0.0
12.6888 46.6162 0.0
15.833 48.7107 0.0
17.142 52.1122 0.0
15.5475 53.3753 0.0
15.0689 53.385 0.0
8.23934 -12.1298 0.0
11.04 -7.31901 0.0
10.1617 -6.10782 0.0
5.10285 -7.84263 0.0
-18.917 -38.515 0.0
-16.8035 -41.8175 0.0
-13.5175 -38.2708 0.0
-16.4153 -35.6419 0.0
-32.0517 30.3952 0.0
-33.4876 28.6936 0.0
-33.4923 27.6748 0.0
-29.1264 24.8721 0.0
-28.6584 25.2283 0.0
-24.9622 28.8734 0.0
-25.3889 29.4291 0.0
-34.9749 -5.58706 0.0
-34.5847 -7.19776 0.0
-31.8256 -7.48162 0.0
-27.8067 -7.76939 0.0
-27.1605 -7.02589 0.0
-27.6166 -4.79563 0.0
-28.004 -3.99255 0.0
-22.1159 -8.74734 0.0
-26.627 -7.41452 0.0
-27.2732 -8.15802 0.0
-27.4542 -11.6296 0.0
-25.2095 -13.0772 0.0
-26.1725 36.179 0.0
-25.2488 36.9983 0.0
-26.1733 42.3372 0.0
-28.8102 42.316 0.0
-31.7712 37.2246 0.0
-30.3077 35.2343 0.0
0.133401 -6.51823 0.0
-1.7842 -4.16684 0.0
-4.87001 -4.14788 0.0
-6.14798 -4.28183 0.0
-7.17639 -7.84485 0.0
-4.45866 -9.0925 0.0
42.0079 5.67417 0.0
41.6151 2.96732 0.0
46.5628 3.54395 0.0
47.2243 7.04496 0.0
43.023 6.47783 0.0
-39.9171 -15.4779 0.0
-38.6439 -17.5335 0.0
-37.6142 -17.5153 0.0
-33.8746 -14.0541 0.0
-34.6121 -11.6466 0.0
-10.2488 26.4803 0.0
-9.92813 28.3251 0.0
-12.0173 29.8448 0.0
-13.5595 29.9763 0.0
-14.7566 28.8664 0.0
-16.4851 26.3655 0.0
61.254 -12.9035 0.0
61.2717 -9.83828 0.0
59.8154 -7.13406 0.0
58.2559 -7.64077 0.0
55.7276 -10.9283 0.0
55.6921 -12.25 0.0
61.1398 -13.2276 0.0
-53.6218 23.7553 0.0
-50.8749 23.2901 0.0
-48.0036 26.9677 0.0
-47.9098 28.4859 0.0
-50.2615 29.9433 0.0
19.2138 24.4555 0.0
21.556 26.0725 0.0
20.4266 28.3261 0.0
18.6723 28.6309 0.0
14.5993 29.1611 0.0
-47.8171 7.00993 0.0
-46.8154 5.83823 0.0
-45.6393 7.81836 0.0
-44.4115 10.2947 0.0
-46.9373 17.3323 0.0
-47.6041 17.0137 0.0
-47.8632 37.3896 0.0
-48.5782 37.6395 0.0
-51.7555 32.3924 0.0
-50.1039 30.6116 0.0
-47.7522 29.1542 0.0
-46.9121 30.4726 0.0
15.4083 17.6755 0.0
16.7511 15.7426 0.0
22.5455 16.6578 0.0
20.3345 20.0467 0.0
18.0298 21.4458 0.0
44.5505 -38.076 0.0
45.7303 -38.724 0.0
47.7158 -36.977 0.0
53.6601 -30.3992 0.0
53.887 -28.2711 0.0
51.7673 -27.7507 0.0
46.3376 -35.5469 0.0
-12.6651 54.0477 0.0
-11.1607 55.0577 0.0
-13.0084 59.9179 0.0
-13.479 60.2888 0.0
-16.0751 60.0947 0.0
-17.2911 59.606 0.0
-18.0968 58.9647 0.0
9.62965 -57.8512 0.0
10.0166 -57.5191 0.0
6.54383 -54.2305 0.0
2.15639 -54.6626 0.0
0.750849 -58.7278 0.0
-21.6882 17.1985 0.0
-22.7337 18.3265 0.0
-26.8882 14.9793 0.0
-26.739 14.0868 0.0
-26.0338 11.4455 0.0
-24.0983 11.7099 0.0
46.9018 2.71156 0.0
45.984 -1.15771 0.0
46.47 -1.70665 0.0
49.8546 -1.25541 0.0
50.5747 0.406552 0.0
51.3066 2.86448 0.0
-57.6138 13.38 0.0
-52.2694 15.2864 0.0
-56.7252 19.9413 0.0
-58.3365 17.3879 0.0
14.816 -26.0626 0.0
14.9628 -27.56 0.0
15.0844 -28.1304 0.0
21.7666 -27.7025 0.0
22.2298 -27.2296 0.0
20.5085 -23.9685 0.0
20.2574 -23.6274 0.0
18.851 -23.624 0.0
-28.2815 -1.00504 0.0
-25.8254 0.0504316 0.0
-29.226 5.84111 0.0
-30.753 4.34142 0.0
-30.2649 0.156244 0.0
7.53366 21.4513 0.0
7.41273 21.5901 0.0
2.81742 23.444 0.0
-2.21524 20.1909 0.0
-1.31179 19.0081 0.0
8.02278 19.9415 0.0
6.39034 14.676 0.0
4.41023 15.271 0.0
-1.07102 11.8833 0.0
1.11746 10.4793 0.0
1.91058 10.1649 0.0
4.61822 9.97037 0.0
5.95118 12.2521 0.0
6.62804 13.7468 0.0
-38.3945 5.20039 0.0
-38.8035 6.20252 0.0
-45.2142 7.22928 0.0
-46.3903 5.24915 0.0
-46.3531 4.95331 0.0
-41.7356 3.67562 0.0
-39.7597 3.33809 0.0
-38.4781 4.96618 0.0
-16.4606 -24.937 0.0
-15.2849 -23.9929 0.0
-16.8665 -17.6427 0.0
-17.2393 -17.403 0.0
-17.7896 -17.3702 0.0
-20.3334 -20.5799 0.0
-18.3953 42.9147 0.0
-14.9333 44.1852 0.0
-13.7663 46.3594 0.0
-21.3058 47.5515 0.0
-22.8451 44.5046 0.0
-60.6444 -13.0763 0.0
-60.6204 -13.548 0.0
-55.1584 -19.107 0.0
-54.6777 -19.1077 0.0
-55.4253 -13.4041 0.0
-57.065 -11.8997 0.0
-59.1279 -10.9083 0.0
-60.4028 -12.3791 0.0
-2.54552 -36.967 0.0
1.1997 -34.9647 0.0
-3.60673 -30.4633 0.0
-4.13474 -30.6172 0.0
-3.65274 -36.7293 0.0
-3.48504 -36.8405 0.0
-31.1061 -15.8383 0.0
-33.5816 -14.3834 0.0
-37.3211 -17.8446 0.0
-32.978 -22.8724 0.0
-32.4482 -21.1521 0.0
41.7223 6.29219 0.0
42.7374 7.09585 0.0
44.1109 14.2012 0.0
40.6844 15.2467 0.0
38.7937 10.4245 0.0
23.168 16.7339 0.0
24.1055 15.9707 0.0
28.6582 18.2159 0.0
26.9016 21.5702 0.0
20.957 20.1228 0.0
-16.1621 -44.2611 0.0
-13.9982 -46.4038 0.0
-6.93537 -46.6001 0.0
-6.82565 -46.2172 0.0
-7.08923 -45.7627 0.0
-10.773 -43.3156 0.0
-15.7532 -43.3857 0.0
-19.2452 -38.8165 0.0
-20.9488 -38.2645 0.0
-22.6433 -41.9333 0.0
-19.1783 -44.5314 0.0
-16.9512 -43.9232 0.0
-16.5423 -43.0478 0.0
-17.1318 -42.1189 0.0
3.334 45.6374 0.0
6.02534 48.4563 0.0
5.42622 49.1165 0.0
1.29604 49.1977 0.0
-0.488181 48.4775 0.0
-2.29082 47.1744 0.0
15.2557 -33.9048 0.0
11.1703 -36.4734 0.0
10.6395 -36.8751 0.0
12.2076 -41.1572 0.0
13.3775 -41.1801 0.0
-12.4138 -38.5384 0.0
-10.2707 -40.4452 0.0
-7.03661 -36.8633 0.0
-8.04152 -36.0121 0.0
-10.5776 -34.2846 0.0
-57.3852 9.04194 0.0
-57.3573 8.27551 0.0
-53.7704 6.48961 0.0
-51.5667 9.09778 0.0
-51.5338 12.1514 0.0
17.3453 22.2464 0.0
17.2983 23.1536 0.0
12.6243 25.9815 0.0
11.9404 25.7518 0.0
8.41198 21.839 0.0
8.53291 21.7002 0.0
-4.97228 55.366 0.0
-5.1283 55.2178 0.0
-0.835889 48.9741 0.0
0.948329 49.6943 0.0
1.11952 53.9507 0.0
0.44567 54.6495 0.0
-2.67045 55.1463 0.0
30.2612 51.2708 0.0
26.7277 50.638 0.0
33.2326 45.1096 0.0
35.5395 45.1703 0.0
34.2165 48.6226 0.0
31.1913 50.7465 0.0
-36.5659 36.2065 0.0
-33.0796 37.2005 0.0
-32.7021 45.1324 0.0
-36.7976 37.5102 0.0
-35.4992 -4.26895 0.0
-35.2863 -4.7903 0.0
-35.0695 -5.26793 0.0
-28.0986 -3.67342 0.0
-28.57 -1.49476 0.0
-30.5534 -0.333474 0.0
-32.8434 -1.40059 0.0
-0.960819 -28.8521 0.0
-0.983258 -28.9722 0.0
4.11374 -31.2216 0.0
5.03232 -30.2373 0.0
8.24745 -26.082 0.0
7.5066 -25.1743 0.0
-0.331108 -27.9776 0.0
-4.8343 31.2913 0.0
-9.27917 28.3195 0.0
-9.59988 26.4747 0.0
-9.7704 25.2445 0.0
-6.93259 24.4069 0.0
-5.38324 25.6576 0.0
-2.44653 30.5767 0.0
1.47803 -54.6792 0.0
-0.0365548 -53.8664 0.0
-2.44114 -53.6562 0.0
-2.8213 -54.153 0.0
-5.54185 -58.7366 0.0
-1.60877 -59.8522 0.0
0.072491 -58.7444 0.0
-48.8096 -25.269 0.0
-49.0017 -25.7648 0.0
-47.3192 -28.9466 0.0
-45.4857 -31.1961 0.0
-44.5338 -31.3356 0.0
-44.3098 -26.0088 0.0
12.3557 7.0553 0.0
14.0675 9.34611 0.0
11.9243 11.421 0.0
7.34569 13.5466 0.0
6.66884 12.0519 0.0
-5.44129 54.9853 0.0
-5.75789 54.8023 0.0
-6.8368 48.5059 0.0
-5.009 47.5268 0.0
-3.30203 47.2228 0.0
-2.95152 47.4384 0.0
-1.14888 48.7416 0.0
4.97525 -7.41199 0.0
10.0341 -5.67718 0.0
10.154 -3.07244 0.0
9.71712 -2.67391 0.0
5.25759 -0.97539 0.0
4.04998 -7.54508 0.0
13.5626 0.585268 0.0
12.1184 -1.8188 0.0
17.1737 -5.07308 0.0
19.1458 -2.18034 0.0
18.0085 -1.04849 0.0
16.8443 0.133567 0.0
16.46 -8.06655 0.0
16.7432 -8.46843 0.0
22.6774 -7.20163 0.0
24.0864 -4.2532 0.0
21.9259 -2.34411 0.0
21.3472 -2.06812 0.0
19.611 -2.52504 0.0
17.639 -5.41778 0.0
18.5332 29.1047 0.0
20.2875 28.7999 0.0
20.1789 31.2426 0.0
19.875 32.0416 0.0
18.184 33.3111 0.0
13.5931 34.433 0.0
12.7299 33.8062 0.0
11.2022 -35.971 0.0
15.2876 -33.4024 0.0
16.1003 -32.8395 0.0
14.4098 -29.7948 0.0
11.3621 -31.1631 0.0
-7.39549 7.0724 0.0
-6.7285 4.8742 0.0
0.397943 10.1086 0.0
-1.79054 11.5126 0.0
-2.66808 11.7659 0.0
-4.03692 11.1485 0.0
33.9491 32.984 0.0
31.8723 34.304 0.0
29.0245 30.4756 0.0
30.9202 26.9698 0.0
34.054 26.6913 0.0
34.3913 28.8984 0.0
-16.648 -2.14014 0.0
-16.4992 -1.71028 0.0
-17.1683 -0.547381 0.0
-19.2664 2.36887 0.0
-23.4663 0.958472 0.0
-23.926 0.123144 0.0
-22.7806 -1.28263 0.0
-3.03188 2.22039 0.0
-4.12025 2.34864 0.0
-4.76743 -3.60613 0.0
-1.68163 -3.6251 0.0
-0.447825 -0.497098 0.0
-2.21822 1.65278 0.0
-25.516 -47.3853 0.0
-26.1873 -50.6322 0.0
-17.3323 -53.0992 0.0
-16.7701 -51.3145 0.0
-20.6263 -47.9527 0.0
-48.0036 -36.0612 0.0
-48.8123 -36.3772 0.0
-48.7287 -36.8029 0.0
-47.0845 -40.2749 0.0
-41.2191 -43.1939 0.0
-40.171 -40.1931 0.0
39.6425 -26.8253 0.0
39.2051 -27.3528 0.0
38.6197 -34.1536 0.0
43.1571 -26.9455 0.0
43.0167 -25.8125 0.0
25.487 37.4519 0.0
24.6346 38.6225 0.0
19.0476 34.9891 0.0
18.8031 34.2306 0.0
18.6864 33.6509 0.0
20.3774 32.3814 0.0
24.142 33.9154 0.0
52.1602 3.87824 0.0
51.7863 2.87338 0.0
51.0544 0.415451 0.0
54.1858 -3.2665 0.0
55.2715 1.72847 0.0
55.1148 2.85329 0.0
22.5021 -1.9546 0.0
24.6626 -3.86369 0.0
28.1125 -3.36508 0.0
28.606 2.05772 0.0
-19.6602 58.1775 0.0
-23.5251 57.0749 0.0
-25.8469 54.6308 0.0
-25.6834 51.3889 0.0
-22.378 51.6744 0.0
-21.986 51.7396 0.0
-21.4156 52.1037 0.0
-20.1662 53.2208 0.0
-5.90647 35.3923 0.0
-4.44508 31.9122 0.0
-2.05731 31.1976 0.0
0.312929 31.4779 0.0
0.230981 34.7727 0.0
0.174885 35.1461 0.0
-2.72619 37.3695 0.0
23.0986 41.9047 0.0
24.7656 40.0334 0.0
30.2363 43.1015 0.0
30.4786 43.7529 0.0
25.6999 45.6703 0.0
23.2355 43.0132 0.0
-30.6851 -30.8561 0.0
-24.7209 -28.5231 0.0
-24.7995 -27.1373 0.0
-26.3534 -25.0855 0.0
-29.0969 -25.2788 0.0
1.04557 35.1134 0.0
1.10167 34.74 0.0
8.77403 31.1149 0.0
9.43357 31.1503 0.0
10.7081 33.4958 0.0
9.93709 33.8262 0.0
2.96099 36.0957 0.0
-0.181301 41.7806 0.0
3.08082 45.3176 0.0
-2.54401 46.8546 0.0
[...]
<CellData Scalars="cell variable 4" Vectors="cell vector">
<DataArray type="Float64" NumberOfComponents="3" Name="cell vector" format="ascii">
0 0 0
0 0 0
0 0 0
0 0 0
0 0 0
0 0 0
0 0 0
0 0 0
0 0 0
0 0 0
0 0 0
0 0 0
0 0 0
0 0 0
0 0 0
0 0 0
0 0 0
0 0 0
0 0 0
0 0 0
0 0 0
0 0 0
0 0 0
0 0 0
0 0 0
0 0 0
0 0 0
0 0 0
0 0 0
0 0 0
0 0 0
0 0 0
0 0 0
0 0 0
0 0 0
0 0 0
0 0 0
0 0 0
0 0 0
0 0 0
0 0 0
0 0 0
0 0 0
0 0 0
0 0 0
0 0 0
0 0 0
0 0 0
0 0 0
0 0 0
0 0 0
0 0 0
0 0 0
0 0 0
0 0 0
0 0 0
0 0 0
0 0 0
0 0 0
0 0 0
0 0 0
0 0 0
0 0 0
0 0 0
0 0 0
0 0 0
0 0 0
0 0 0
0 0 0
0 0 0
0 0 0
0 0 0
0 0 0
0 0 0
0 0 0
0 0 0
0 0 0
0 0 0
0 0 0
0 0 0
0 0 0
0 0 0
0 0 0
0 0 0
0 0 0
0 0 0
0 0 0
0 0 0
0 0 0
0 0 0
0 0 0
0 0 0
0 0 0
0 0 0
0 0 0
0 0 0
0 0 0
0 0 0
0 0 0
0 0 0
0 0 0
0 0 0
0 0 0
0 0 0
0 0 0
0 0 0
0 0 0
0 0 0
0 0 0
0 0 0
0 0 0
0 0 0
0 0 0
0 0 0
0 0 0
0 0 0
0 0 0
0 0 0
0 0 0
0 0 0
0 0 0
0 0 0
0 0 0
0 0 0
0 0 0
0 0 0
0 0 0
0 0 0
0 0 0
0 0 0
0 0 0
0 0 0
0 0 0
0 0 0
0 0 0
0 0 0
0 0 0
0 0 0
0 0 0
0 0 0
0 0 0
0 0 0
0 0 0
0 0 0
0 0 0
0 0 0
0 0 0
0 0 0
0 0 0
0 0 0
0 0 0
0 0 0
0 0 0
0 0 0
0 0 0
0 0 0
0 0 0
0 0 0
0 0 0
0 0 0
0 0 0
0 0 0
0 0 0
0 0 0
0 0 0
0 0 0
0 0 0
0 0 0
0 0 0
0 0 0
0 0 0
0 0 0
0 0 0
0 0 0
0 0 0
0 0 0
0 0 0
0 0 0
0 0 0
0 0 0
0 0 0
0 0 0
0 0 0
0 0 0
0 0 0
0 0 0
0 0 0
0 0 0
0 0 0
0 0 0
0 0 0
0 0 0
0 0 0
0 0 0
0 0 0
0 0 0
0 0 0
0 0 0
0 0 0
0 0 0
0 0 0
0 0 0
0 0 0
0 0 0
0 0 0
0 0 0
0 0 0
0 0 0
0 0 0
0 0 0
0 0 0
0 0 0
0 0 0
0 0 0
0 0 0
0 0 0
0 0 0
0 0 0
0 0 0
0 0 0
0 0 0
0 0 0
0 0 0
0 0 0
0 0 0
0 0 0
0 0 0
0 0 0
0 0 0
0 0 0
0 0 0
0 0 0
0 0 0
0 0 0
0 0 0
0 0 0
0 0 0
0 0 0
0 0 0
0 0 0
0 0 0
0 0 0
0 0 0
0 0 0
0 0 0
0 0 0
0 0 0
0 0 0
0 0 0
0 0 0
0 0 0
0 0 0
0 0 0
0 0 0
0 0 0
0 0 0
0 0 0
0 0 0
0 0 0
0 0 0
0 0 0
0 0 0
0 0 0
0 0 0
0 0 0
0 0 0
0 0 0
0 0 0
0 0 0
0 0 0
0 0 0
0 0 0
0 0 0
0 0 0
0 0 0
0 0 0
0 0 0
0 0 0
0 0 0
0 0 0
0 0 0
0 0 0
0 0 0
0 0 0
0 0 0
0 0 0
0 0 0
0 0 0
0 0 0
0 0 0
0 0 0
0 0 0
0 0 0
0 0 0
0 0 0
0 0 0
0 0 0
0 0 0
0 0 0
0 0 0
0 0 0
0 0 0
0 0 0
0 0 0
0 0 0
0 0 0
0 0 0
0 0 0
0 0 0
0 0 0
0 0 0
0 0 0
0 0 0
0 0 0
0 0 0
0 0 0
0 0 0
0 0 0
0 0 0
0 0 0
0 0 0
0 0 0
0 0 0
0 0 0
0 0 0
0 0 0
0 0 0
0 0 0
0 0 0
0 0 0
0 0 0
0 0 0
0 0 0
0 0 0
0 0 0
0 0 0
0 0 0
0 0 0
0 0 0
0 0 0
0 0 0
0 0 0
0 0 0
0 0 0
0 0 0
0 0 0
0 0 0
0 0 0
0 0 0
0 0 0
0 0 0
0 0 0
0 0 0
0 0 0
0 0 0
0 0 0
0 0 0
0 0 0
0 0 0
0 0 0
0 0 0
0 0 0
0 0 0
0 0 0
0 0 0
0 0 0
0 0 0
0 0 0
0 0 0
0 0 0
0 0 0
0 0 0
0 0 0
0 0 0
0 0 0
0 0 0
0 0 0
0 0 0
0 0 0
0 0 0
0 0 0
0 0 0
0 0 0
0 0 0
0 0 0
0 0 0
0 0 0
0 0 0
0 0 0
0 0 0
0 0 0
0 0 0
0 0 0
0 0 0
0 0 0
0 0 0
0 0 0
0 0 0
0 0 0
0 0 0
0 0 0
0 0 0
0 0 0
0 0 0
0 0 0
0 0 0
0 0 0
0 0 0
0 0 0
0 0 0
0 0 0
0 0 0
0 0 0
0 0 0
0 0 0
0 0 0
0 0 0
</DataArray>
<DataArray type="Float64" Name="cell vector length" format="ascii">
0 0 0 0 0 0 0 0 0 0 0 0 0 0 0 0 0 0 0 0 0 0 0 0 0 0 0 0 0 0 0 0 0 0 0 0 0 0 0 0 0 0 0 0 0 0 0 0 0 0 0 0 0 0 0 0 0 0 0 0 0 0 0 0 0 0 0 0 0 0 0 0 0 0 0 0 0 0 0 0 0 0 0 0 0 0 0 0 0 0 0 0 0 0 0 0 0 0 0 0 0 0 0 0 0 0 0 0 0 0 0 0 0 0 0 0 0 0 0 0 0 0 0 0 0 0 0 0 0 0 0 0 0 0 0 0 0 0 0 0 0 0 0 0 0 0 0 0 0 0 0 0 0 0 0 0 0 0 0 0 0 0 0 0 0 0 0 0 0 0 0 0 0 0 0 0 0 0 0 0 0 0 0 0 0 0 0 0 0 0 0 0 0 0 0 0 0 0 0 0 0 0 0 0 0 0 0 0 0 0 0 0 0 0 0 0 0 0 0 0 0 0 0 0 0 0 0 0 0 0 0 0 0 0 0 0 0 0 0 0 0 0 0 0 0 0 0 0 0 0 0 0 0 0 0 0 0 0 0 0 0 0 0 0 0 0 0 0 0 0 0 0 0 0 0 0 0 0 0 0 0 0 0 0 0 0 0 0 0 0 0 0 0 0 0 0 0 0 0 0 0 0 0 0 0 0 0 0 0 0 0 0 0 0 0 0 0 0 0 0 0 0 0 0 0 0 0 0 0 0 0 0 0 0 0 0 0 0 0 0 0 0 0 0 0 0 0 0 0 0 0 0 0 0 0 0 0 0 0 0 0 0 0 0 0 0 0 0 0 0 0 0 0 0 0 0 0 0 0 0 0 0 0 0 0 0 0 0 0 0 0 0 0 0 0 0 0 0 0 0 0 0 0 0 0 0 0 0 0 0 0 0 0 0 0 0 0 
</DataArray>
<DataArray type="Float64" Name="cell variable 4" format="ascii">
0.316217 0.000510187 7.22055e-10 1.1392e-10 0.249242 0.0032488 1.23542e-08 0.94865 0.000319359 0.000137838 0.23011 0.479217 5.48914e-07 1.04461 1.14453e-06 0.000586701 0.334198 4.77775e-11 1.1392e-10 0.161465 1.34433e-07 1.43573e-10 0.511974 1.79224e-10 1.25207e-10 1.06024e-10 0.393381 1.14453e-06 2.48184e-10 0.163146 0.332003 0.626025 0.980966 3.42138e-05 0.437452 1.19294e-07 4.633e-11 0.184973 0.00760007 4.69927e-06 0.252014 1.1995e-07 2.42345e-06 5.96913e-06 0.000160982 0.000319359 8.58362e-10 0.434405 2.68958e-08 6.21089e-10 3.42967e-09 0.23011 0.442722 0.33356 3.05763e-10 2.10901e-08 1.06245 2.68958e-08 1.11547 0.912892 0.573608 0.161465 0.187543 1.07467 1.55471e-05 0.542818 1.12037 6.17036e-10 1.36606e-10 1.97283e-08 4.18495e-05 2.5907e-09 0.45141 5.84028e-11 0.0976075 7.55742e-08 0.000116047 0.0505895 5.96913e-06 1.61534e-05 5.26566e-05 0.00103121 5.60239e-07 0.0032488 1.81312e-09 7.29789e-07 0.0824302 1.10185 1.14226 0.371127 0.184973 0.708918 2.06659e-11 1.36132e-10 4.42555e-05 0.00273317 0.118662 1.1995e-07 1.38398e-06 6.13175e-07 0.503886 5.37776e-11 1.68594e-06 3.58878e-10 0.631062 2.814e-10 0.479217 5.76039e-06 0.434405 0.912892 0.542818 4.46645e-09 0.000157331 0.673042 3.49399e-07 8.33062e-06 2.42345e-06 6.16323e-05 1.6923e-08 0.789941 0.00403603 0.153908 3.37504e-10 4.46645e-09 2.16e-11 0.000425284 6.21089e-10 7.13306e-11 0.99432 0.000705084 4.46645e-09 4.42555e-05 5.41779e-08 0.000705084 0.66381 4.18495e-05 1.04772e-07 4.61276e-06 2.10901e-08 1.18023e-09 2.34778e-08 1.00681 7.58754e-07 0.393247 0.187543 1.61534e-05 2.88095e-08 6.97512e-07 3.13132e-09 8.68069e-05 0.0773391 5.37776e-11 0.00151096 0.919422 1.16697e-08 7.29789e-07 0.23011 2.00391e-09 0.542818 0.000237451 3.42138e-05 0.94865 0.848855 0.136507 1.10621e-08 5.78851e-09 0.657465 1.34433e-07 7.29789e-07 3.48747e-09 0.27464 0.184973 0.00403603 0.371127 2.4788e-08 3.89469e-09 1.00681 1.97283e-08 0.130161 0.0824302 1.12037 0.179448 1.09841e-08 1.32488e-09 0.00103121 1.89305e-07 1.2938e-10 1.41816e-10 0.313432 0.136507 1.23799e-05 3.01178e-10 1.07467 8.75867e-11 1.36132e-10 0.000209614 6.13175e-07 6.80038e-10 1.5044e-05 1.89305e-07 0.790107 2.44056e-08 0.161465 3.58878e-10 0.631062 0.50937 0.45141 3.48316e-07 7.55742e-08 3.89469e-09 0.514292 0.000157331 4.61276e-06 0.495708 1.0952e-09 0.153908 3.48316e-07 4.44145e-11 1.38398e-06 1.23799e-05 2.5907e-09 0.316217 5.60239e-07 0.00145277 0.000306373 0.8063 0.000331293 0.332003 0.0978407 0.763876 1.76443e-09 0.90618 1.25207e-10 0.187543 9.86599e-09 0.0646441 3.38072e-08 1.14453e-06 0.00370628 0.631062 7.9236e-08 1.73262e-10 0.343308 0.32239 0.000306373 0.399988 5.52696e-11 0.736473 2.24794e-07 0.0032488 5.98214e-11 0.393247 9.86599e-09 0.36504 1.60998e-08 1.04772e-07 1.86103e-08 3.09214e-07 0.0097703 7.9236e-08 1.65194e-09 1.09841e-08 0.184059 1.5044e-05 0.000209614 0.27464 0.0978407 0.0505895 2.73299e-11 4.61276e-06 0.000319359 6.80038e-10 0.136507 0.542818 7.29789e-07 0.000586701 0.136507 3.49399e-07 0.184973 3.49399e-07 0.187543 3.42138e-05 1.79224e-10 0.00103121 0.000116047 0.000157331 0.00760007 2.5907e-09 0.50937 3.42967e-09 1.14453e-06 0.23011 2.34778e-08 2.34778e-08 4.46645e-09 0.0032488 0.000319359 2.24794e-07 1.0952e-09 1.16697e-08 7.9236e-08 1.1995e-07 1.68594e-06 0.179448 0.0646441 0.118662 0.000160982 0.00145277 1.10621e-08 1.61534e-05 0.631062 5.41779e-08 6.13175e-07 1.2938e-10 1.97283e-08 0.153908 0.130161 1.11547 0.980966 5.48914e-07 0.0824302 0.32239 0.161465 2.48184e-10 4.69927e-06 0.118662 0.153908 2.10901e-08 0.00103121 1.36606e-10 0.163146 0.000137838 6.17036e-10 5.26566e-05 1.41816e-10 5.96913e-06 3.48747e-09 0.495708 0.36504 1.55471e-05 5.98214e-11 0.249242 1.18023e-09 2.16e-11 0.000425284 7.58754e-07 1.97283e-08 0.848855 0.000510187 6.80038e-10 0.657465 0.573608 0.919422 0.442722 0.399988 0.252014 1.79224e-10 0.8063 1.23542e-08 3.09214e-07 0.000237451 0.343308 6.16323e-05 2.814e-10 0.919422 0.763876 2.24794e-07 0.313432 0.789941 1.76443e-09 5.76039e-06 5.78851e-09 0.0773391 1.10185 3.01178e-10 0.790107 1.32488e-09 0.184059 0.673042 0.00370628 0.66381 0.000160982 3.49399e-07 0.514292 7.22055e-10 1.65194e-09 3.37504e-10 1.43573e-10 1.14226 0.000157331 0.626025 1.04461 4.77775e-11 1.5272e-11 0.334198 8.33062e-06 0.00151096 0.511974 1.06245 6.13175e-07 0.0505895 0.736473 3.42967e-09 1.0952e-09 1.68594e-06 0.393381 0.0505895 8.58362e-10 3.42138e-05 0.437452 1.16697e-08 0.00760007 0.179448 0.90618 1.16697e-08 1.0952e-09 6.80038e-10 
</DataArray>
<DataArray type="Float64" Name="cell variable 5" format="ascii">
0.0909148 0.999974 1 1 0.138655 0.998946 1 0.0109898 0.99999 0.999998 0.158855 0.0417277 1 0.00908091 1 0.999966 0.082177 1 1 0.277231 1 1 0.0367488 1 1 1 0.0606986 1 1 0.273099 0.0831765 0.0248813 0.0102849 1 0.0496613 1 1 0.226167 0.994257 1 0.136034 1 1 1 0.999997 0.99999 1 0.0503251 1 1 1 0.158855 0.0485429 0.0824658 1 1 0.00878122 1 0.00797274 0.0118572 0.0294962 0.277231 0.221374 0.00858434 1 0.0328244 0.00790366 1 1 1 1 1 0.0467791 1 0.512105 1 0.999999 0.796223 1 1 1 0.999894 1 0.998946 1 1 0.595425 0.00816951 0.00760594 0.0676886 0.226167 0.0195097 1 1 1 0.999254 0.415271 1 1 1 0.037893 1 1 1 0.0244954 1 0.0417277 1 0.0503251 0.0118572 0.0328244 1 0.999998 0.021599 1 1 1 1 1 0.0157727 0.998374 0.296844 1 1 1 0.999982 1 1 0.0100133 0.99995 1 1 1 0.99995 0.0221905 1 1 1 1 1 1 0.00976872 1 0.0607373 0.221374 1 1 1 1 0.999999 0.62573 1 0.999772 0.0116913 1 1 0.158855 1 0.0328244 0.999994 1 0.0109898 0.0136882 0.349234 1 1 0.0226112 1 1 1 0.117059 0.226167 0.998374 0.0676886 1 1 0.00976872 1 0.371169 0.595425 0.00790366 0.236958 1 1 0.999894 1 1 1 0.0923878 0.349234 1 1 0.00858434 1 1 0.999996 1 1 1 1 0.0157662 1 0.277231 1 0.0244954 0.0371116 0.0467791 1 1 1 0.0364304 0.999998 1 0.0391044 1 0.296844 1 1 1 1 1 0.0909148 1 0.999789 0.999991 0.0151488 0.999989 0.0831765 0.510913 0.016849 1 0.0120314 1 0.221374 1 0.705275 1 1 0.998628 0.0244954 1 1 0.0782104 0.0877689 0.999991 0.0588268 1 0.0181031 1 0.998946 1 0.0607373 1 0.0698059 1 1 1 1 0.990544 1 1 1 0.227907 1 0.999996 0.117059 0.510913 0.796223 1 1 0.99999 1 0.349234 0.0328244 1 0.999966 0.349234 1 0.226167 1 0.221374 1 1 0.999894 0.999999 0.999998 0.994257 1 0.0371116 1 1 0.158855 1 1 1 0.998946 0.99999 1 1 1 1 1 1 0.236958 0.705275 0.415271 0.999997 0.999789 1 1 0.0244954 1 1 1 1 0.296844 0.371169 0.00797274 0.0102849 1 0.595425 0.0877689 0.277231 1 1 0.415271 0.296844 1 0.999894 1 0.273099 0.999998 1 1 1 1 1 0.0391044 0.0698059 1 1 0.138655 1 1 0.999982 1 1 0.0136882 0.999974 1 0.0226112 0.0294962 0.0116913 0.0485429 0.0588268 0.136034 1 0.0151488 1 1 0.999994 0.0782104 1 1 0.0116913 0.016849 1 0.0923878 0.0157727 1 1 1 0.62573 0.00816951 1 0.0157662 1 0.227907 0.021599 0.998628 0.0221905 0.999997 1 0.0364304 1 1 1 1 0.00760594 0.999998 0.0248813 0.00908091 1 1 0.082177 1 0.999772 0.0367488 0.00878122 1 0.796223 0.0181031 1 1 1 0.0606986 0.796223 1 1 0.0496613 1 0.994257 0.236958 0.0120314 1 1 1 
</DataArray>
<DataArray type="Float64" Name="cell variable 6" format="ascii">
0.0038835 1.00883 1.00917 1.00917 0.0566856 1.00681 1.00917 1.10661e-05 1.00896 1.00908 0.0671729 0.00051123 1.00917 6.33494e-06 1.00917 1.00878 0.00576492 1.00917 1.00917 0.298329 1.00917 1.00917 0.00035504 1.00917 1.00917 1.00917 0.00151522 1.00917 1.00917 0.294057 0.00364689 0.000115922 9.11938e-06 1.00915 0.000885689 1.00917 1.00917 0.208208 1.00277 1.00917 0.0441278 1.00917 1.00917 1.00917 1.00907 1.00896 1.00917 0.000857904 1.00917 1.00917 1.00917 0.0671729 0.000858618 0.00403961 1.00917 1.00917 5.74138e-06 1.00917 4.32387e-06 1.38076e-05 0.000187165 0.298329 0.185318 5.3719e-06 1.00916 0.000251962 4.21468e-06 1.00917 1.00917 1.00917 1.00915 1.00917 0.000696942 1.00917 0.67289 1.00917 1.0091 0.900072 1.00917 1.00916 1.00914 1.00849 1.00917 1.00681 1.00917 1.00917 0.752638 4.64493e-06 3.76475e-06 0.0019189 0.208208 5.81379e-05 1.00917 1.00917 1.00914 1.00716 0.533485 1.00917 1.00917 1.00917 0.000380196 1.00917 1.00917 1.00917 0.000110922 1.00917 0.00051123 1.00917 0.000857904 1.38076e-05 0.000251962 1.00917 1.00907 7.76673e-05 1.00917 1.00917 1.00917 1.00913 1.00917 3.156e-05 1.00605 0.3398 1.00917 1.00917 1.00917 1.00889 1.00917 1.00917 8.43313e-06 1.0087 1.00917 1.00914 1.00917 1.0087 8.3838e-05 1.00915 1.00917 1.00917 1.00917 1.00917 1.00917 7.8448e-06 1.00917 0.00202135 0.185318 1.00916 1.00917 1.00917 1.00917 1.00912 0.780596 1.00917 1.00816 1.32528e-05 1.00917 1.00917 0.0671729 1.00917 0.000251962 1.00902 1.00915 1.10661e-05 2.09522e-05 0.432355 1.00917 1.00917 8.84138e-05 1.00917 1.00917 1.00917 0.02163 0.208208 1.00605 0.0019189 1.00917 1.00917 7.8448e-06 1.00917 0.477444 0.752638 4.21468e-06 0.235078 1.00917 1.00917 1.00849 1.00917 1.00917 1.00917 0.00439847 0.432355 1.00917 1.00917 5.3719e-06 1.00917 1.00917 1.00904 1.00917 1.00917 1.00916 1.00917 3.15261e-05 1.00917 0.298329 1.00917 0.000110922 0.000394946 0.000696942 1.00917 1.00917 1.00917 0.000349016 1.00907 1.00917 0.000410215 1.00917 0.3398 1.00917 1.00917 1.00917 1.00917 1.00917 0.0038835 1.00917 1.00814 1.00897 2.80904e-05 1.00895 0.00364689 0.674122 3.81646e-05 1.00917 1.4406e-05 1.00917 0.185318 1.00917 0.841792 1.00917 1.00917 1.00642 0.000110922 1.00917 1.00917 0.00310284 0.00628005 1.00897 0.00127682 1.00917 4.69278e-05 1.00917 1.00681 1.00917 0.00202135 1.00917 0.0019794 1.00917 1.00917 1.00917 1.00917 1.00014 1.00917 1.00917 1.00917 0.235443 1.00916 1.00904 0.02163 0.674122 0.900072 1.00917 1.00917 1.00896 1.00917 0.432355 0.000251962 1.00917 1.00878 0.432355 1.00917 0.208208 1.00917 0.185318 1.00915 1.00917 1.00849 1.0091 1.00907 1.00277 1.00917 0.000394946 1.00917 1.00917 0.0671729 1.00917 1.00917 1.00917 1.00681 1.00896 1.00917 1.00917 1.00917 1.00917 1.00917 1.00917 0.235078 0.841792 0.533485 1.00907 1.00814 1.00917 1.00916 0.000110922 1.00917 1.00917 1.00917 1.00917 0.3398 0.477444 4.32387e-06 9.11938e-06 1.00917 0.752638 0.00628005 0.298329 1.00917 1.00917 0.533485 0.3398 1.00917 1.00849 1.00917 0.294057 1.00908 1.00917 1.00914 1.00917 1.00917 1.00917 0.000410215 0.0019794 1.00916 1.00917 0.0566856 1.00917 1.00917 1.00889 1.00917 1.00917 2.09522e-05 1.00883 1.00917 8.84138e-05 0.000187165 1.32528e-05 0.000858618 0.00127682 0.0441278 1.00917 2.80904e-05 1.00917 1.00917 1.00902 0.00310284 1.00913 1.00917 1.32528e-05 3.81646e-05 1.00917 0.00439847 3.156e-05 1.00917 1.00917 1.00917 0.780596 4.64493e-06 1.00917 3.15261e-05 1.00917 0.235443 7.76673e-05 1.00642 8.3838e-05 1.00907 1.00917 0.000349016 1.00917 1.00917 1.00917 1.00917 3.76475e-06 1.00907 0.000115922 6.33494e-06 1.00917 1.00917 0.00576492 1.00917 1.00816 0.00035504 5.74138e-06 1.00917 0.900072 4.69278e-05 1.00917 1.00917 1.00917 0.00151522 0.900072 1.00917 1.00915 0.000885689 1.00917 1.00277 0.235078 1.4406e-05 1.00917 1.00917 1.00917 
</DataArray>
<DataArray type="Float64" Name="cell variable 7" format="ascii">
0.357275 0.805214 0.978092 0.988818 0.413855 0.731648 0.944982 0.109939 0.786592 0.818915 0.46057 0.24144 0.895885 0.091923 0.908704 0.789622 0.334908 0.989411 0.988818 0.543895 0.953353 0.985799 0.2268 0.985845 0.986201 0.987264 0.290041 0.908704 0.983128 0.531783 0.340125 0.185875 0.103782 0.881455 0.262734 0.924335 0.988661 0.488241 0.695937 0.865788 0.422896 0.91048 0.886845 0.876672 0.804465 0.786592 0.980133 0.264653 0.95837 0.969761 0.963699 0.46057 0.259721 0.337987 0.973562 0.945385 0.0886341 0.95837 0.0788486 0.116913 0.203114 0.543895 0.511928 0.0863829 0.87201 0.214434 0.0779382 0.968141 0.97158 0.947968 0.828165 0.967203 0.255368 0.984507 0.58928 0.926812 0.821805 0.667622 0.876672 0.855098 0.808066 0.74517 0.910934 0.731648 0.951959 0.91184 0.652741 0.0813708 0.0738515 0.306453 0.488241 0.162493 0.977907 0.986005 0.85435 0.786302 0.633332 0.91048 0.900885 0.926956 0.230311 0.979721 0.922196 0.967409 0.184332 0.982487 0.24144 0.912087 0.264653 0.116913 0.214434 0.96428 0.802201 0.172124 0.887905 0.869271 0.886845 0.804393 0.966248 0.142859 0.781706 0.544906 0.974211 0.96428 0.987688 0.777768 0.969761 0.985824 0.10127 0.790771 0.96428 0.85435 0.955764 0.790771 0.174715 0.828165 0.926865 0.89681 0.945385 0.96829 0.922008 0.0989326 0.900971 0.288948 0.511928 0.855098 0.95287 0.921346 0.970096 0.812727 0.646851 0.979721 0.723507 0.115625 0.962378 0.91184 0.46057 0.966983 0.214434 0.815305 0.881455 0.109939 0.129973 0.58017 0.947397 0.969413 0.176526 0.953353 0.91184 0.970553 0.399197 0.488241 0.781706 0.306453 0.95286 0.960718 0.0989326 0.947968 0.557964 0.652741 0.0779382 0.481302 0.955946 0.978562 0.74517 0.938631 0.98041 0.9868 0.360012 0.58017 0.864126 0.975103 0.0863829 0.983673 0.986005 0.803638 0.926956 0.962912 0.867885 0.938631 0.142821 0.952017 0.543895 0.967409 0.184332 0.227704 0.255368 0.905229 0.926812 0.960718 0.225806 0.802201 0.89681 0.233945 0.965959 0.544906 0.905229 0.98225 0.900885 0.864126 0.967203 0.357275 0.910934 0.822606 0.774006 0.139181 0.823381 0.340125 0.570965 0.148901 0.962923 0.118245 0.986201 0.511928 0.963751 0.663687 0.960394 0.908704 0.736426 0.184332 0.937093 0.978337 0.329428 0.347352 0.774006 0.285858 0.988558 0.15552 0.921969 0.731648 0.988722 0.288948 0.963751 0.311423 0.969235 0.926865 0.933796 0.914119 0.724735 0.937093 0.973522 0.955946 0.426674 0.867885 0.803638 0.399197 0.570965 0.667622 0.980165 0.89681 0.786592 0.962912 0.58017 0.214434 0.91184 0.789622 0.58017 0.887905 0.488241 0.887905 0.511928 0.881455 0.985845 0.74517 0.821805 0.802201 0.695937 0.967203 0.227704 0.963699 0.908704 0.46057 0.922008 0.922008 0.96428 0.731648 0.786592 0.921969 0.965959 0.962378 0.937093 0.91048 0.922196 0.481302 0.663687 0.633332 0.804465 0.822606 0.947397 0.855098 0.184332 0.955764 0.926956 0.98041 0.947968 0.544906 0.557964 0.0788486 0.103782 0.895885 0.652741 0.347352 0.543895 0.983128 0.865788 0.633332 0.544906 0.945385 0.74517 0.97158 0.531783 0.818915 0.968141 0.808066 0.9868 0.876672 0.970553 0.233945 0.311423 0.87201 0.988722 0.413855 0.96829 0.987688 0.777768 0.900971 0.947968 0.129973 0.805214 0.962912 0.176526 0.203114 0.115625 0.259721 0.285858 0.422896 0.985845 0.139181 0.944982 0.914119 0.815305 0.329428 0.804393 0.982487 0.115625 0.148901 0.921969 0.360012 0.142859 0.962923 0.912087 0.969413 0.646851 0.0813708 0.975103 0.142821 0.978562 0.426674 0.172124 0.736426 0.174715 0.804465 0.887905 0.225806 0.978092 0.973522 0.974211 0.985799 0.0738515 0.802201 0.185875 0.091923 0.989411 0.990516 0.334908 0.869271 0.723507 0.2268 0.0886341 0.926956 0.667622 0.15552 0.963699 0.965959 0.922196 0.290041 0.667622 0.980133 0.881455 0.262734 0.962378 0.695937 0.481302 0.118245 0.962378 0.965959 0.962912 
</DataArray>
<DataArray type="Float64" Name="cell variable 8" format="ascii">