<VTKFile type="UnstructuredGrid" version="0.1">
<UnstructuredGrid>
<Piece  NumberOfPoints="    3326" NumberOfCells="    2443">
<Points>
<DataArray type="Float64" NumberOfComponents="3" format="ascii">
19.3252 48.8432 0 
23.7686 20.0936 0 
-26.792 -33.2517 0 
-7.87966 9.03594 0 
26.6824 7.2974 0 
-33.2967 3.1443 0 
-15.603 -5.57929 0 
1.53859 -13.8775 0 
-37.2734 -10.0142 0 
6.11158 29.3658 0 
40.0694 -1.78559 0 
9.37115 47.4815 0 
-38.0594 -0.212232 0 
10.1647 13.1006 0 
43.3635 40.1643 0 
9.88461 -28.774 0 
37.4436 47.79 0 
-19.8584 51.3449 0 
-28.8835 -20.9769 0 
38.932 -31.949 0 
33.8623 -25.2152 0 
55.2284 21.9457 0 
-36.6235 32.1803 0 
18.3414 3.90568 0 
-10.0594 41.5298 0 
-33.8786 33.0215 0 
-22.6762 -32.9182 0 
22.264 -50.526 0 
26.6467 -26.7889 0 
-11.6248 -0.916088 0 
5.2519 -55.33 0 
-12.9296 0.190942 0 
-28.3149 -53.4131 0 
-38.434 36.8785 0 
5.27999 -49.8391 0 
-19.051 -42.0102 0 
-27.999 1.20898 0 
26.4807 18.6302 0 
-14.6803 13.0865 0 
-60.4372 8.14076 0 
-7.48601 7.74402 0 
-22.4865 -58.0372 0 
-1.22746 -29.3878 0 
47.6558 24.8907 0 
-61.4103 10.5153 0 
33.2149 -38.2522 0 
-35.2507 -1.06764 0 
22.431 28.7596 0 
11.2759 26.0222 0 
-35.154 33.7704 0 
7.17145 56.6653 0 
1.21767 33.5487 0 
-6.4335 43.8579 0 
56.1616 8.00506 0 
33.6443 22.1804 0 
-6.75653 37.0909 0 
-1.35545 40.5294 0 
30.1796 27.5482 0 
20.8584 -55.6647 0 
-14.9418 44.0218 0 
33.858 22.1004 0 
20.7774 -6.66647 0 
-39.8506 9.18519 0 
-11.1826 -0.999913 0 
-11.921 -51.0784 0 
43.8649 -24.8648 0 
-31.2164 -40.881 0 
-13.5553 -59.755 0 
-4.14564 -58.8463 0 
-17.2333 34.7196 0 
41.6492 -10.7614 0 
-35.8886 -15.293 0 
-52.8505 1.15272 0 
-1.8811 -6.67575 0 
48.4358 9.25419 0 
55.1685 -7.48037 0 
-40.7348 12.8659 0 
-15.0448 28.9615 0 
-13.3074 -58.113 0 
21.9633 5.07207 0 
-10.5089 24.9703 0 
29.8304 43.4848 0 
-30.3642 -30.6993 0 
-55.5096 20.8743 0 
-3.38069 -23.3833 0 
-11.9973 -23.096 0 
37.0439 -18.5027 0 
-6.07419 16.372 0 
37.2584 41.2214 0 
-20.5145 6.73631 0 
52.6966 29.6787 0 
-19.0492 26.4052 0 
20.58 -13.2111 0 
23.1981 35.9434 0 
-20.6016 -7.20578 0 
-29.8973 -52.822 0 
7.18042 34.3271 0 
-42.0324 -39.5176 0 
-32.5499 48.3657 0 
-56.2958 15.9935 0 
9.52544 -22.0121 0 
-6.0268 2.21075 0 
-34.3802 -9.97113 0 
-43.6604 -13.8684 0 
37.0541 1.96093 0 
-41.9631 -0.261347 0 
43.6562 44.3008 0 
32.7769 -1.76244 0 
16.3519 53.2854 0 
-14.9117 -29.2643 0 
-3.36186 -12.027 0 
-42.6996 33.9818 0 
-21.9184 15.0265 0 
29.2118 -46.3566 0 
16.1692 -44.7039 0 
-0.431222 -42 0 
34.9847 13.0493 0 
4.67489 39.3502 0 
-21.5835 45.0743 0 
-20.4325 -39.6993 0 
-19.5972 52.8142 0 
21.9553 -1.78343 0 
-49.7383 -4.47139 0 
-3.39669 33.947 0 
-22.0721 2.64966 0 
-5.03648 -6.958 0 
47.4136 1.41714 0 
52.2783 30.3377 0 
14.0134 15.8829 0 
-25.3064 53.7406 0 
-21.977 -44.1712 0 
-20.4193 -10.4191 0 
34.3914 12.5076 0 
-51.5825 9.15772 0 
-11.3729 -8.01528 0 
-56.4458 8.56169 0 
24.6903 38.1946 0 
25.2791 45.7538 0 
11.8931 26.1635 0 
12.3344 -7.12961 0 
-51.0581 -24.3324 0 
35.3836 -8.20083 0 
3.91362 17.356 0 
-19.4187 50.8133 0 
-37.222 -9.02743 0 
-36.1546 44.5025 0 
16.8946 -50.4781 0 
44.0796 -24.3429 0 
-5.95501 -44.7408 0 
-24.6241 24.4179 0 
35.7182 -44.8985 0 
45.7877 16.7566 0 
-43.2899 -34.0437 0 
31.2063 -48.212 0 
39.7073 -2.46793 0 
44.7168 29.2773 0 
27.8225 54.91 0 
-23.2761 -33.1579 0 
49.2411 -32.326 0 
49.431 21.0309 0 
51.9443 -28.0551 0 
-37.5003 -44.9478 0 
60.4064 -1.94454 0 
24.7748 46.6951 0 
5.59175 -30.3811 0 
-17.7046 34.6293 0 
-20.4335 -8.2357 0 
-37.14 -42.9792 0 
3.46332 52.812 0 
27.099 -44.4732 0 
26.5461 -34.4106 0 
27.4678 33.0323 0 
-61.0336 3.75286 0 
21.545 21.9095 0 
18.6241 -22.5923 0 
52.3322 -11.5186 0 
-22.7442 12.8189 0 
-29.3274 40.9019 0 
-49.0582 -31.9421 0 
44.3422 -27.4533 0 
12.8066 -52.12 0 
-23.5144 48.3582 0 
-30.6206 -17.6621 0 
-2.50174 13.2682 0 
-14.5182 23.4371 0 
-5.87279 -13.8171 0 
43.6796 -44.0232 0 
-6.90501 16.8102 0 
34.2905 -33.7333 0 
-25.869 -47.5341 0 
20.3396 -50.4487 0 
43.5282 18.6274 0 
-17.0243 -51.2856 0 
-36.5488 -22.452 0 
18.3521 54.1876 0 
12.2526 -17.6256 0 
19.1592 37.6635 0 
12.3605 -33.9943 0 
9.66632 12.1828 0 
-47.6875 31.4525 0 
6.01662 40.9946 0 
44.5653 -15.0097 0 
-42.4981 35.3759 0 
8.41539 -44.8541 0 
-11.0302 -34.5798 0 
-5.97451 44.0342 0 
-30.1507 6.64601 0 
-14.7137 45.1817 0 
-7.53444 -15.311 0 
0.900683 -42.6357 0 
-28.293 43.4225 0 
62.081 5.60815 0 
4.8846 4.13893 0 
21.9943 -3.32139 0 
-18.4761 -24.3896 0 
-58.4584 -4.54345 0 
10.8637 -30.1143 0 
-17.0868 56.7615 0 
-25.054 39.3269 0 
0.958315 28.0114 0 
16.3875 24.9526 0 
-2.69466 50.8384 0 
18.9512 -35.8215 0 
-17.8696 22.0993 0 
49.066 -33.9953 0 
48.1363 9.92473 0 
-21.1547 14.7363 0 
19.8035 55.3938 0 
41.0153 -1.65016 0 
-12.4747 -22.3697 0 
-6.68247 60.6294 0 
50.5295 -5.51739 0 
-40.6578 10.4285 0 
-55.3598 20.0263 0 
-26.6219 -54.9012 0 
-49.5018 8.10131 0 
17.6588 23.2305 0 
-22.5606 22.1213 0 
-20.227 -22.5088 0 
-35.9606 14.396 0 
-47.1043 20.301 0 
-2.73477 62.5339 0 
-57.5381 -21.1918 0 
21.8441 -3.75587 0 
-58.1591 1.18442 0 
-10.4901 -24.5396 0 
7.00746 37.5425 0 
-7.46568 -24.4898 0 
-28.58 55.2748 0 
-18.7388 -40.6911 0 
-10.2612 -29.6927 0 
25.8671 19.376 0 
22.0099 21.9639 0 
-32.8031 -31.3432 0 
-10.5786 -7.8033 0 
2.54232 -2.22998 0 
-32.1501 -3.29645 0 
-12.3887 36.3593 0 
0.917038 -50.3372 0 
-43.8676 -43.562 0 
61.5329 -4.11261 0 
17.363 -21.6115 0 
31.306 38.8194 0 
-36.3397 10.4142 0 
12.1901 -48.0873 0 
49.5379 -30.9468 0 
-24.7548 30.8585 0 
-54.8687 21.3849 0 
-21.9739 3.31551 0 
-13.1025 47.5741 0 
31.1095 -12.9432 0 
-39.0632 -35.8142 0 
-43.1926 -7.06312 0 
48.6778 9.08064 0 
43.0127 29.1095 0 
-0.206031 -56.5365 0 
55.6666 1.55297 0 
32.9538 -4.59943 0 
11.7217 50.8949 0 
-18.0369 -15.3034 0 
-25.0897 53.3048 0 
14.072 52.9638 0 
-15.5666 -50.2314 0 
52.1588 -13.5134 0 
28.4208 -18.3053 0 
41.706 11.6644 0 
-45.3176 -11.9815 0 
21.8991 -1.93564 0 
59.2983 -11.5656 0 
-43.5553 29.2235 0 
-55.5611 -7.15134 0 
-19.7467 3.43365 0 
-10.5062 50.9557 0 
23.1598 -35.8474 0 
-47.9054 -10.1964 0 
9.97964 8.77508 0 
7.98443 -52.6224 0 
-28.6318 48.0308 0 
-29.7956 41.9143 0 
-36.6089 -8.70557 0 
-20.8219 23.0005 0 
20.7068 56.8209 0 
3.53136 39.1497 0 
13.9828 46.3134 0 
55.4613 -19.0853 0 
-19.6348 -22.8242 0 
22.0487 -4.8485 0 
5.30832 39.2674 0 
-30.723 25.8959 0 
-14.5711 -14.1506 0 
56.1075 0.680045 0 
-25.7901 -2.44142 0 
52.1654 13.8298 0 
-9.24373 -41.8362 0 
41.9787 -15.2209 0 
-61.3358 -3.24188 0 
-45.2285 37.795 0 
-16.5065 -39.3341 0 
-15.794 17.81 0 
54.6906 18.781 0 
-9.92167 53.3502 0 
34.483 -39.134 0 
24.5272 -54.9082 0 
14.0941 46.2153 0 
-29.5572 -27.4622 0 
-1.33642 -8.14855 0 
-27.9621 -24.0925 0 
-42.795 -2.19518 0 
53.0155 28.9754 0 
-25.7454 -45.5577 0 
48.9776 -33.4104 0 
-55.5826 -7.22316 0 
6.63652 -22.7054 0 
41.8971 -12.7611 0 
-38.1659 -22.4015 0 
-29.9339 -11.5866 0 
56.5751 -10.2993 0 
20.796 -42.649 0 
-29.5955 -27.0102 0 
-22.4399 17.5176 0 
33.4057 -28.3387 0 
-1.56284 41.4866 0 
49.2138 -32.6251 0 
1.88001 53.1489 0 
5.85712 -7.26383 0 
-47.1865 36.6203 0 
-6.11332 48.6326 0 
1.8962 -25.5162 0 
-22.6545 16.1564 0 
26.3117 51.1441 0 
-50.4196 2.1919 0 
-43.3707 15.7986 0 
-39.4897 18.2751 0 
-8.88808 -15.6865 0 
23.8572 -30.4573 0 
-14.8867 12.9866 0 
1.12823 14.9527 0 
-40.4232 41.6346 0 
-16.1769 -38.6717 0 
-27.6072 32.1922 0 
16.1859 -15.7583 0 
6.85807 37.8594 0 
-33.0815 20.7298 0 
-51.0654 15.6271 0 
33.8659 -38.0448 0 
8.28734 47.0218 0 
-42.7806 -2.57376 0 
-18.7405 -51.0682 0 
-52.2228 2.44332 0 
3.47964 -1.15014 0 
-7.81498 -50.7913 0 
47.5035 15.5274 0 
16.5726 13.0145 0 
-47.5312 26.9367 0 
11.5541 -51.3137 0 
23.5672 -44.0787 0 
1.65884 61.7116 0 
-12.2707 28.5314 0 
-27.9018 32.8039 0 
8.64628 -13.813 0 
-58.494 -9.61255 0 
31.5899 47.2325 0 
33.3921 22.1979 0 
30.9984 13.8629 0 
21.4877 -20.8961 0 
-47.0307 26.904 0 
-28.0954 13.1873 0 
58.3689 -19.1848 0 
-55.2954 -19.5972 0 
-21.3675 -26.4447 0 
48.9339 17.9533 0 
-10.8183 9.52391 0 
51.5736 30.5913 0 
-46.1935 -17.8108 0 
44.2867 -23.3164 0 
40.8895 -10.5905 0 
-16.1037 12.7713 0 
24.5722 -20.6391 0 
-2.89549 15.0548 0 
60.2643 17.5945 0 
-17.3619 41.8617 0 
13.1465 -22.445 0 
-9.56304 54.3672 0 
11.2215 -64.4196 0 
-60.5426 7.41259 0 
-2.27817 -15.2858 0 
-31.8525 42.0164 0 
-43.3252 6.15444 0 
-11.0506 -23.5434 0 
32.0435 51.2676 0 
37.3198 40.4847 0 
-14.0747 15.9869 0 
9.97783 -44.1457 0 
43.2603 -44.5306 0 
16.6591 10.7298 0 
-38.9096 48.6139 0 
-13.0001 -0.463593 0 
0.142179 24.1843 0 
-16.5175 27.9177 0 
-15.6743 -4.49056 0 
1.79491 -16.593 0 
-3.87582 0.614637 0 
18.4444 9.133 0 
-52.1462 30.5176 0 
-55.2966 -18.7539 0 
-6.33136 58.0745 0 
13.6474 -53.9956 0 
-18.4989 -25.4404 0 
4.11184 33.0734 0 
20.9877 35.6234 0 
-1.74322 50.9223 0 
43.859 7.03674 0 
-1.97917 24.5794 0 
-24.258 23.0418 0 
-53.2278 -3.08763 0 
39.5056 -47.9998 0 
-20.5461 -2.92207 0 
15.2454 -14.8568 0 
-60.7462 -9.86613 0 
18.301 -9.45321 0 
-26.4392 -45.9655 0 
3.58532 9.85751 0 
17.4209 46.1336 0 
16.7347 -43.8725 0 
-35.0919 -2.88041 0 
5.34525 11.2035 0 
-29.9803 -19.2672 0 
-3.4378 -49.5619 0 
-28.5245 -44.5107 0 
-0.931873 25.2288 0 
-44.4076 -12.3999 0 
-21.9369 -51.0943 0 
13.8671 32.9783 0 
-52.1788 -31.2114 0 
-28.4624 48.7544 0 
32.3783 -11.7298 0 
-1.18819 42.3211 0 
34.299 -49.3258 0 
39.9444 -1.24923 0 
41.7196 25.8084 0 
-36.543 -6.22179 0 
25.5677 6.59694 0 
-37.2153 -43.1975 0 
-1.32349 38.0148 0 
-0.67201 56.4105 0 
-43.9012 -29.1526 0 
0.17407 4.3133 0 
-3.69841 -29.2269 0 
-28.5455 -4.11464 0 
37.2463 13.7521 0 
-16.545 -46.1688 0 
4.31741 17.5336 0 
-51.8964 -12.9056 0 
28.0406 32.0567 0 
25.4352 -9.29796 0 
-21.3011 -51.5229 0 
-4.56357 -54.2867 0 
-23.4591 40.503 0 
37.2835 -40.8821 0 
7.27912 57.2012 0 
22.2454 -1.64053 0 
-11.5433 11.2362 0 
32.7256 -48.1286 0 
-27.3068 -14.2551 0 
-21.9118 -33.1213 0 
-20.1979 -13.5509 0 
-17.6725 -16.8692 0 
18.6221 -34.9548 0 
12.6689 -33.3803 0 
-7.6208 -15.3099 0 
51.7001 6.37661 0 
33.0554 -3.68294 0 
14.1183 -54.3332 0 
[...]
<CellData Scalars="wall variable 0">
<DataArray type="Float64" Name="wall length" format="ascii">
2.10518 2.81846 2.32986 4.76918 0.792951 0.424804 3.0327 2.90832 0.200314 6.63 6.44488 0.550942 4.7667 6.46433 4.53062 7.82775 2.01343 8.84865 0.752294 4.202 0.402056 3.58704 0.724027 9.60183 0.873809 9.43774 0.83402 1.52454 1.16129 6.76077 4.92522 2.2765 0.911123 8.08553 1.40829 2.98051 1.76448 8.5475 0.336411 1.02295 4.07707 4.36904 2.84964 8.0516 0.90936 1.40829 1.14293 3.50749 3.54683 0.676396 6.59057 5.31891 2.5237 2.54177 0.75157 0.518886 6.50204 1.62921 2.06866 0.57842 1.73988 5.43027 0.625697 2.90138 1.24112 3.94358 3.08033 3.25636 1.8441 0.675999 1.78902 1.40227 7.7175 1.72671 2.47496 3.88777 4.37945 0.488842 7.05528 3.83106 4.83388 0.420024 3.25495 2.60896 6.54687 1.07074 1.63481 3.41771 2.83148 0.518886 1.94946 0.37658 6.17409 0.977532 3.44032 1.61819 6.52351 2.12076 6.2397 2.63441 7.14044 0.0557083 3.70618 3.61243 6.03458 1.93567 0.733796 4.12123 5.3738 4.23878 0.554881 5.83687 5.43374 0.868867 5.83687 4.4347 1.75726 5.78894 1.05812 0.60288 5.43043 2.53332 0.648827 2.32958 8.0516 2.63441 0.81515 4.59683 1.33462 4.7593 5.60327 2.80616 2.20917 7.25653 0.359584 6.70793 3.16925 1.86635 0.877366 4.17412 0.300092 8.07168 1.67213 6.7763 4.29658 7.59458 3.10269 5.21577 5.00242 0.645464 4.12123 0.158928 4.61046 7.2182 1.33387 12.5868 2.28972 3.72388 5.23545 2.53243 8.67411 5.96837 1.50579 3.2869 3.00658 5.43739 0.655384 4.85676 3.96066 0.842154 4.39853 4.83388 0.30393 7.22395 5.21091 4.77329 6.368 0.476105 1.52667 5.32069 5.52084 2.90204 8.19148 1.785 2.87758 3.10932 0.563221 4.40789 4.87968 2.27331 7.27401 1.51637 0.341393 4.05677 4.90968 0.805959 1.50513 2.85618 3.25 2.96959 6.80676 7.42284 2.88333 6.29583 0.376714 3.29612 1.74889 0.160091 0.0385721 0.325825 1.73069 3.1742 2.70134 2.57554 7.80485 2.64739 2.59281 1.8441 0.253782 1.54713 0.476105 0.880439 5.82468 1.23985 5.64937 3.44032 0.812616 8.24442 4.70487 0.292893 2.63924 8.1129 5.85092 3.3522 9.20849 0.885579 6.94361 1.09891 8.07429 1.58153 1.36459 6.15965 0.691627 1.55578 0.910724 11.547 0.368234 1.53615 0.567774 4.4995 7.02526 1.77484 0.948287 3.97092 1.1013 0.463906 4.13347 6.49867 0.439076 7.49507 1.49466 0.467012 5.23968 3.44763 4.0145 2.00218 0.951694 2.17002 1.71099 5.67506 1.64485 7.03797 0.709953 2.1579 8.1129 1.72964 3.34815 3.57217 5.31891 0.601493 0.376714 7.77795 1.91816 0.910724 1.29893 0.323369 8.00241 1.45792 3.96888 6.96674 1.57188 6.95105 0.132433 1.1896 1.8499 2.66274 4.05677 3.50749 1.41989 0.293925 4.56496 3.94785 0.445484 6.84796 2.32986 7.42118 2.38976 3.99699 6.22056 3.56825 2.77888 0.965945 5.27713 5.67938 4.67484 5.54613 3.75529 4.39307 5.43027 3.59404 2.29394 1.76933 7.23218 3.16939 3.59027 3.31053 1.57921 1.05041 0.965945 2.99435 4.62759 2.89622 5.82468 3.2601 0.742381 2.96047 0.825083 4.57647 0.957007 0.577615 2.77518 2.88433 0.323369 0.520662 5.22495 0.625006 5.81647 4.6767 2.64545 3.61657 3.31053 1.24484 2.54177 4.1658 6.19916 0.850559 5.85092 2.1579 4.22948 1.77353 5.21091 0.567513 8.13678 1.93106 3.70957 1.58633 4.58751 7.61955 1.83958 0.336364 7.42118 2.81846 6.64759 5.10498 1.8532 1.68103 3.59404 1.73988 1.37157 6.88768 5.46658 0.463906 6.11022 4.37945 3.00845 3.09657 0.605051 7.86726 0.304628 6.55815 3.11252 0.942009 0.584305 2.28972 3.10221 1.6901 2.93159 9.2226 5.47068 0.812317 2.20554 2.61606 4.09938 1.20122 2.71331 5.91096 0.610647 4.70106 3.73274 6.64759 0.57842 6.89086 2.53243 4.87755 3.51855 4.46562 1.91452 1.23455 0.844303 3.40977 3.71673 0.975546 2.48955 5.81753 0.531055 0.653191 1.50381 4.85654 0.391131 1.76742 2.37924 1.41277 5.54613 1.81797 5.60476 7.20782 4.23529 0.653947 9.46218 0.226103 4.53664 6.30673 1.93467 0.376489 0.842154 0.553609 5.81113 1.77997 2.01902 9.20849 0.625697 7.23218 4.1282 2.49033 3.2307 2.60896 1.90558 2.08464 10.5041 0.343339 1.67632 0.358451 8.93938 0.37599 5.82403 0.442033 3.88969 2.80296 2.47496 4.12923 0.705763 4.693 5.57319 9.69242 0.506577 5.42093 2.15136 7.42605 3.60164 2.38197 3.95098 1.50513 5.42467 0.915372 0.764343 4.90309 7.14044 5.60327 3.02194 3.20076 0.520878 1.91816 4.00796 4.81341 0.37658 1.18635 11.547 1.38326 1.29788 0.992285 1.8872 0.628735 5.6507 2.0828 9.62575 4.81341 4.84011 6.31462 6.17409 3.61013 2.12823 4.61046 1.67672 6.26175 3.1742 1.47495 8.58393 0.554513 8.67768 2.42346 5.91096 2.15827 1.84003 4.30122 0.461937 4.91053 0.545529 6.67766 1.78902 4.43827 3.83226 3.76862 1.14149 1.49147 1.49842 3.11883 1.11128 5.03658 0.237089 8.30543 5.22628 6.04981 0.647304 6.22867 2.90204 0.979336 0.798893 0.439076 3.48663 7.74666 3.91674 3.55787 6.59168 0.58969 8.52284 0.538858 9.51475 0.518939 6.04981 1.46057 4.87563 1.1896 9.25479 1.52667 1.54713 9.86697 2.15763 3.49497 4.47987 2.74652 0.823022 4.90968 2.66274 3.76862 1.52136 2.59694 4.93195 5.3269 2.70375 1.33462 5.23445 0.565953 2.06036 6.55815 1.81668 6.20661 2.80616 0.740234 6.773 0.401345 0.0681415 1.30717 5.67938 3.11176 1.67672 0.158928 0.853369 8.5475 4.49011 4.90309 6.87695 1.8532 6.87695 0.764343 8.53103 0.908741 1.38002 2.29394 1.68103 6.48106 0.724027 6.77156 4.37137 2.12076 0.799497 4.45523 6.66714 2.637 1.76806 1.76932 1.37661 9.51422 0.343339 1.77077 7.66703 0.550942 6.48106 3.70618 2.24543 9.60183 1.55994 6.85346 0.948287 1.738 2.45024 2.87758 2.83277 1.17528 1.29939 0.523449 4.59386 3.64284 2.62408 6.50708 3.90948 2.92515 2.96126 0.361031 7.06701 6.73353 6.52351 2.26372 4.40841 3.2496 5.54176 0.420024 4.39853 0.376489 3.3522 0.404447 0.840791 2.22252 5.41658 4.47931 2.54746 4.39522 1.18249 5.43374 0.868867 3.51733 1.93106 0.63711 2.98669 1.01566 1.20122 0.292893 0.92334 3.51719 5.95073 1.08193 3.71998 6.72414 3.51855 2.80316 0.391131 0.149983 1.35079 3.46711 3.28939 3.85054 2.91344 6.19511 2.99548 3.99224 0.453634 1.64175 8.14365 2.90138 6.67766 2.24441 4.90599 7.08261 3.79386 0.825083 0.699166 3.29505 6.89756 6.80161 2.90832 2.55822 1.81668 4.43827 0.675999 2.59281 4.94894 5.25879 2.13433 5.43739 0.347542 0.841035 5.61256 0.461937 4.29929 1.07778 1.08359 0.679747 4.53062 0.972765 0.173889 2.32379 2.16393 6.20264 3.76464 4.24788 0.555448 1.9258 0.705763 1.73635 1.33191 1.89937 1.69155 6.76077 0.90936 2.32958 8.64967 0.77633 1.58389 5.20007 0.666156 6.05722 4.65378 3.54683 6.84796 0.539517 4.87563 3.79929 0.434125 0.174073 9.43973 1.61811 1.10533 2.20512 0.361031 0.370838 11.1162 3.51004 0.915241 1.23243 4.90599 7.1111 4.23549 3.10932 2.45024 5.931 0.655384 3.83106 3.73274 1.64058 2.85618 3.95098 4.49011 5.10498 0.777053 3.761 1.49691 7.61955 2.10518 6.80161 1.63441 4.1658 2.5237 3.57217 5.27276 6.2949 0.33385 0.304004 5.41658 4.63882 3.51513 6.23199 3.76464 3.61243 0.645464 2.77787 2.01343 2.68736 8.64412 0.400638 0.584125 9.73441 5.12623 4.25972 1.71865 2.4461 6.56765 4.65378 2.35138 2.93438 1.29788 0.669088 0.666156 4.92084 0.584125 1.21219 4.11312 3.00967 4.59592 3.58181 4.87968 3.7407 1.73361 3.05858 6.64913 7.35599 0.878742 3.09214 1.28721 4.5213 0.989048 4.18523 1.80098 0.73801 1.71099 6.12295 0.679842 2.28461 6.78061 0.706587 0.745916 5.61367 1.29227 1.92951 0.941544 0.998856 3.02194 4.7593 2.70375 0.304628 9.17477 6.97035 8.32226 0.149983 4.85654 0.404447 6.94361 2.12379 1.91577 2.17281 0.906662 8.74598 0.610647 4.6617 3.59352 3.1424 3.53757 4.84154 5.931 1.738 1.77484 5.91376 4.85676 3.70944 5.47581 2.37563 1.9651 5.81113 1.51748 4.76123 0.36601 3.29672 3.51004 1.64245 1.93567 3.25636 8.19438 2.15763 1.8499 9.86697 0.253782 3.7176 3.15862 9.62575 0.381528 1.75726 2.3251 2.59046 2.06252 2.58264 3.761 3.71583 0.413121 5.78119 4.91053 5.61256 10.121 2.10209 6.61062 4.18523 0.819806 6.6351 0.949161 4.22568 5.86567 0.194661 5.84561 1.27634 1.14149 5.3269 1.10449 4.51204 0.249815 4.29658 2.78021 0.120964 1.9875 3.40149 6.59168 7.00336 1.49055 10.0658 0.256585 0.116924 1.02295 9.57563 0.795323 3.02253 10.8572 4.57647 3.015 0.878742 2.37924 2.1293 3.72388 0.584305 2.52161 5.879 3.2307 5.95525 2.79438 0.362779 6.54687 1.23243 1.00466 5.92361 0.939665 3.53396 7.08261 3.01268 8.3215 1.41989 1.14293 8.08553 1.52881 7.06701 2.20512 2.52816 3.38482 0.37599 2.21706 6.85892 0.139819 0.154567 3.12513 0.358451 4.52371 1.63098 4.63882 2.22252 5.09986 5.84866 4.40013 0.683065 3.24874 2.15507 3.81126 3.94358 2.70134 8.67768 0.636179 5.69514 1.28721 2.16778 3.96215 2.33925 5.53338 0.719095 1.14025 5.37157 1.12766 2.85647 6.2949 1.4439 2.54002 7.2182 2.12823 0.723411 6.53948 4.72717 6.90091 1.64485 0.166158 1.49055 6.42685 0.609275 0.447793 3.70763 2.61606 2.42346 4.70584 0.266984 1.90464 4.98417 1.80098 6.61062 2.31767 2.48955 8.57669 0.523449 1.16108 0.359584 2.33249 2.93159 4.5213 2.34935 0.226103 1.95773 1.63481 8.8627 5.95073 5.94686 2.55675 4.15141 2.6211 1.69155 2.99595 3.60864 1.61811 0.491277 4.33919 1.86063 4.92522 3.10221 8.67411 1.23455 4.35212 0.816906 4.23529 0.543813 3.87532 1.77821 4.97774 0.880569 3.45132 0.853967 1.21622 0.812317 5.85536 1.14025 3.11109 2.49205 4.79737 5.03993 3.04595 6.6351 0.717946 5.73437 1.41277 5.879 1.94098 1.45792 2.80407 3.75529 2.84623 6.72256 4.35212 1.91452 2.19426 1.33191 0.381349 7.70477 3.46711 3.82526 7.59458 0.249815 3.08169 5.42544 0.871253 2.19709 7.93305 4.51204 5.8561 6.36498 2.54746 1.24483 0.381349 3.38046 7.26372 2.69296 6.85759 0.182625 0.567513 6.94369 1.8872 2.91365 1.18135 6.63 0.224117 3.56825 1.30717 1.76448 2.20243 2.33925 7.07831 8.58393 2.40172 0.943777 1.58404 8.00977 6.05722 4.59592 4.01983 3.05953 2.35138 1.64245 7.1111 3.29505 5.29625 3.10269 0.733796 0.859001 0.979336 5.52084 0.966536 3.60831 7.26372 7.08022 0.790433 0.835308 3.05711 5.96837 2.13433 1.13337 0.0953442 0.939665 3.06546 7.03157 1.42578 1.52242 3.59352 4.11618 5.05105 5.23968 1.9291 1.9279 3.69559 2.17281 1.54624 11.1162 3.12305 10.112 1.96635 2.53332 5.77796 1.26132 0.825105 0.0385721 11.0166 1.26132 7.43015 0.60288 3.64596 6.81418 4.84505 5.44097 2.81689 3.20076 0.998856 0.60704 6.72335 3.7176 5.55185 2.64249 4.32005 2.52816 1.10533 3.60864 1.43792 4.45523 6.89086 2.06866 1.0799 4.11618 4.6617 1.57921 6.19916 1.63441 2.85647 3.61013 4.46426 2.41791 1.69705 4.22948 0.709953 5.139 7.35768 0.815772 2.34044 7.80485 1.79255 0.520662 6.96674 0.786506 2.96959 2.4162 1.66717 2.32684 0.260555 1.59964 1.37655 5.00321 3.59555 1.74889 3.03258 0.871253 3.19661 0.815671 3.96799 3.71583 0.777053 6.89756 0.0681415 8.90946 0.743355 0.854315 6.91045 1.03476 3.02253 7.35599 2.4461 5.97984 1.9137 2.27331 0.823022 2.93964 1.14319 1.21219 2.56445 2.32379 2.88739 6.10362 0.790433 3.81422 1.70676 0.853369 12.5868 0.210369 3.67581 9.57563 0.336411 2.77787 5.00242 4.7945 0.742381 1.4139 8.84865 5.52353 5.96544 1.25475 0.963324 4.17412 0.963324 6.16492 4.47987 1.86742 2.15507 1.42612 0.300092 5.3738 1.18249 4.09938 3.70763 5.91501 2.22943 2.99595 8.64967 0.648827 1.96635 0.469481 6.66714 1.43792 2.33249 7.25653 2.78917 0.424804 1.26118 9.2226 3.41593 3.81422 7.08022 5.92361 1.9651 7.06852 0.402056 3.84991 4.14205 1.77997 3.75038 5.00321 2.11389 1.10029 3.12305 0.370838 2.96126 0.923667 5.83015 0.743355 6.64913 5.69514 1.25475 5.38634 2.93964 2.74652 6.16492 4.58751 7.26629 0.628735 6.94369 0.915372 0.494525 1.40227 3.22859 2.06252 5.66767 8.53103 2.91365 0.992285 2.93438 3.05953 5.25725 8.03055 2.20243 2.98051 2.02652 6.35329 5.53338 1.09885 6.36326 4.27997 1.84003 4.48059 2.25643 4.0382 0.92334 4.70487 0.850559 7.22395 2.74663 5.8299 0.668496 2.04811 0.873809 2.24543 0.0557083 0.520878 2.81689 4.13347 5.46658 2.63744 0.967778 5.47581 1.46903 5.45477 1.66717 2.43833 3.53757 5.45814 5.08543 3.71998 4.59907 2.3251 4.4347 0.554881 0.221437 3.69695 1.59233 2.10431 2.65922 5.77698 7.6621 4.12923 1.72671 5.29775 4.25938 3.90948 1.52881 0.533073 2.40172 1.47495 1.73069 1.34376 4.06429 7.9298 5.13436 6.46504 2.98669 3.00252 0.566691 7.6621 4.03572 0.761522 1.77077 10.5041 3.42693 6.48444 2.12379 0.885579 2.01902 4.14205 2.00218 4.40015 3.55811 0.860136 8.17712 3.41896 2.10431 4.10644 0.256585 2.29988 6.36326 5.77796 5.43043 7.43015 0.942009 9.42077 1.34376 0.325825 2.34044 3.96888 1.94098 2.52161 2.54002 4.19412 4.4995 3.42936 1.23999 0.210369 1.33387 0.469481 11.0166 0.160091 3.59555 6.29978 2.637 0.492503 7.41989 3.00845 3.88777 2.80296 1.93467 5.80441 0.194661 1.50384 1.95768 4.13062 2.28461 2.07329 3.81589 0.683065 5.51026 1.25549 6.85892 2.37563 0.967778 2.12701 2.68736 3.58704 7.06852 2.51397 3.11883 2.58425 3.11304 4.76123 3.51733 5.78894 0.381528 2.0828 3.62682 3.70957 2.63924 6.72414 5.08543 1.60201 1.72964 0.132433 4.21646 0.966536 5.32069 9.25479 1.30301 4.54008 3.86143 0.844303 2.48986 2.49205 2.32131 1.01147 6.84352 0.839017 5.23445 4.59683 3.64284 3.49352 1.43969 2.88739 0.173889 7.52012 2.22943 4.40795 0.723411 3.34815 1.60201 0.221437 4.23878 3.49287 5.84324 3.97092 6.85346 0.761522 2.09705 4.95726 4.7667 7.66703 3.56417 3.34194 6.65558 0.154567 10.7922 2.68648 6.68642 3.16939 2.46937 2.38976 0.336364 0.886106 0.605051 0.32384 1.66244 3.69695 0.566691 2.08464 1.03698 1.32415 6.19511 1.0465 3.16925 0.586879 4.52371 1.67632 9.51422 2.23102 5.67506 0.73801 4.98417 3.45612 3.38482 4.32005 0.799497 4.71541 5.82403 3.2869 1.65461 3.40977 3.86143 1.9179 5.23005 0.545529 10.121 0.841035 0.805214 10.3836 2.24441 1.00615 2.41791 1.66483 4.40841 3.00044 8.07429 5.39643 1.3092 3.45612 1.90464 5.37426 0.679842 6.70124 0.830562 1.27634 0.894446 4.53664 2.34935 4.36904 4.92461 0.32384 2.91344 1.27741 2.02652 1.15819 3.55042 2.59 0.58969 3.40149 0.588134 9.0023 2.02569 1.08359 3.5637 1.67213 3.82526 1.35079 8.32226 4.84154 2.43833 2.4162 3.25 1.64058 4.70106 0.321011 5.51026 4.40013 1.24112 8.14365 2.19709 3.03258 3.29612 0.601493 6.59057 2.75577 1.45627 9.17477 1.6901 0.543813 7.20782 1.55955 1.15819 1.08193 2.6211 3.24573 5.55185 2.59046 4.59907 3.88969 5.2579 3.19661 5.42544 0.53157 0.492503 4.46426 6.26175 3.11176 5.27713 1.05041 1.10449 4.93195 0.533845 3.49287 1.55994 1.35906 5.8561 0.586879 8.07168 1.42612 3.24874 3.81589 2.21706 0.795323 3.67581 1.23999 4.86716 6.42685 0.339532 6.80676 0.786506 3.75038 2.92515 4.25938 4.81581 2.85963 3.79703 1.9179 4.54008 6.94329 1.58153 3.00044 2.26372 1.61819 5.64937 0.975546 0.264708 2.377 3.49352 4.59386 8.57669 3.83226 5.25879 2.71487 1.13337 4.29929 5.77698 9.73753 1.70088 2.09705 4.03572 5.09986 4.39522 6.36498 1.35906 1.17528 1.80413 4.07707 0.116924 4.10644 1.59233 1.66244 4.92461 1.32415 6.35268 0.831635 2.85963 2.18641 2.99548 0.506577 8.05233 3.79929 1.46057 5.22628 0.709229 2.70567 5.45814 3.1424 1.52242 6.86604 1.9137 3.60676 4.01348 0.922446 1.40622 7.27401 3.79386 3.53396 0.0953442 2.71487 4.94894 2.64739 2.89622 1.9258 7.44632 0.668084 0.690293 3.91674 1.38722 4.693 2.88433 0.882128 4.39307 2.80407 8.00241 0.877366 2.68773 5.25725 4.01983 3.00967 0.613026 5.52353 5.23545 2.1293 1.76742 2.80316 4.87755 4.37137 2.13552 0.949161 3.04595 0.246515 1.01147 0.81515 6.2397 0.813286 0.609275 4.86716 3.42936 0.567774 1.53492 3.22906 4.72717 1.26118 0.792951 0.0845868 5.37157 5.85536 5.47068 1.58633 3.62682 5.6507 7.26629 0.815772 10.1662 0.368234 1.18635 1.94946 6.73353 1.66483 3.79755 1.81348 1.34433 3.55042 1.55955 5.60476 1.4439 5.27276 1.29893 7.02526 4.19412 3.63236 6.20264 4.21493 2.58425 1.49842 1.10209 5.2437 5.42093 0.709229 8.30543 0.613026 4.11312 1.14319 5.38634 5.96544 4.354 5.61367 1.93608 5.81647 1.16129 4.55955 4.70584 2.10209 2.13552 6.77156 0.740234 6.70793 1.16108 1.29939 2.31023 0.577615 4.61936 3.29672 5.49129 1.70676 3.41593 1.00466 0.915241 0.597921 8.24442 0.434777 2.15136 5.2437 2.47742 2.377 7.30858 0.835308 6.10362 1.43969 0.166158 4.30122 4.27997 2.29988 10.0658 4.62759 5.0113 0.592005 3.99699 2.46937 3.48663 3.44763 5.05105 1.91577 6.48444 0.7887 2.65922 3.41896 1.09885 1.57718 5.13436 2.06032 9.73753 1.08992 8.75943 0.75157 1.24484 3.59027 6.68642 1.03476 0.695215 6.773 4.61936 0.957007 10.8572 5.91501 0.447793 0.813286 6.53948 4.40795 1.71865 2.06812 4.77899 1.20343 3.60676 5.97984 4.72733 7.9298 2.10318 0.565953 0.839017 4.72641 0.618184 0.608447 5.29483 0.669088 1.38326 3.15862 6.72335 1.09545 8.64412 2.12701 2.63744 6.88768 0.638869 2.13569 10.7922 0.139819 1.25549 0.321011 1.64175 10.3836 0.264708 3.71673 1.65461 1.50579 3.05711 7.30858 5.76075 3.79755 1.81797 0.816906 6.72256 0.413121 8.90946 0.401345 0.695215 6.91045 0.886546 2.18278 0.347542 3.00658 5.23005 3.79703 0.831635 0.595039 3.56417 2.13569 0.805214 1.03698 1.90558 3.42613 3.34194 0.595039 6.35268 4.76918 6.22056 0.592005 3.25381 7.71406 1.12766 0.0845868 3.71221 1.09096 5.45745 1.50384 5.86567 3.2601 0.880439 8.19148 6.22867 0.74456 0.752294 1.4139 0.669569 1.29227 4.354 0.625006 2.20249 7.03157 3.40277 0.798893 0.859001 3.38046 0.440331 4.19096 7.49507 0.636179 0.554513 8.00977 2.6357 5.95525 2.49033 0.819305 0.923667 3.11252 2.06036 2.10318 4.06429 9.42077 2.83148 4.146 2.74391 2.82552 6.50204 0.951694 8.17712 0.301941 3.71221 4.22568 0.830562 2.339 5.00209 0.853967 5.80975 7.44632 0.555448 6.29978 3.96799 6.1844 1.76806 5.91376 6.49867 1.46903 3.70944 0.553609 3.96066 6.44488 1.18135 8.03055 2.68773 1.86635 1.0465 1.37661 1.38722 8.52284 2.59 1.34433 1.03126 5.57319 2.99435 2.77888 0.224117 1.97953 3.25381 5.0113 4.37025 3.7407 4.40789 0.510272 4.16813 5.61342 2.48986 5.81753 2.31767 2.20554 4.79737 6.30673 0.894446 5.84561 5.80441 2.8422 7.82775 0.679747 2.02569 6.97035 1.50381 0.400638 1.09545 5.5971 1.11128 2.51397 1.51748 6.03458 2.55822 3.0327 2.78917 2.20917 6.20661 1.73635 9.69242 1.03126 1.81348 5.76075 2.84623 6.12295 2.17002 2.339 6.70124 4.46562 3.85054 4.28603 0.33385 1.89937 2.19426 2.74391 3.1934 0.653947 2.07329 1.92951 0.669569 6.34866 1.45627 9.0023 1.74889 1.36022 3.34678 4.84505 0.941544 3.99224 2.18641 4.81581 1.30301 6.92505 2.62408 7.52012 0.972765 6.46433 2.8422 0.653191 1.83682 1.52136 5.03658 5.5971 0.638869 1.37157 3.6795 0.341393 7.65537 3.70766 0.440331 6.85759 1.89339 1.57188 2.38197 1.76557 3.64596 1.05812 2.84964 0.434125 8.05233 6.32363 7.27869 2.79438 2.6357 1.58404 0.453634 6.92505 2.32131 3.11109 0.719095 6.35329 1.27741 1.89339 2.69296 3.60831 4.21646 6.95105 6.56765 5.29483 9.80565 0.77633 2.51039 2.32684 5.45477 2.70567 0.531019 1.06715 8.70637 4.00796 7.77795 6.29583 2.20422 4.84011 0.74456 7.74666 0.7887 3.42693 3.84991 4.202 2.31023 6.50708 1.83682 0.531055 4.67484 0.882128 2.77518 2.34336 5.47373 3.87532 0.407603 3.51513 1.63098 0.200314 4.95726 1.70088 2.06032 3.00252 0.63711 8.13678 0.182625 4.13062 1.32635 4.23305 2.05026 6.78061 0.53157 3.08169 1.35039 1.08992 2.68648 3.09657 7.41989 3.015 5.22495 1.79255 2.57554 2.16778 3.09214 0.246515 5.03993 1.82847 4.72641 6.84352 6.90091 3.22906 0.827374 5.139 7.03797 5.29625 0.699166 2.96047 4.7945 5.21577 1.57718 4.48059 2.15827 2.71331 1.01566 6.46504 1.35039 7.93305 2.75577 0.676396 8.75943 4.92084 5.20007 1.89623 2.40011 1.12174 9.73441 1.24483 4.47931 0.304004 4.28603 3.28939 7.70477 1.57269 0.70536 4.77329 1.77353 1.69705 1.00615 1.09891 6.72113 1.82847 5.73437 1.30939 6.32363 0.943777 0.533073 4.72733 0.819305 4.1282 1.76933 1.38002 4.03082 0.886546 0.854315 5.83015 2.82552 6.34866 3.40277 3.06546 1.0799 1.62921 3.42613 8.93938 3.12513 6.65558 7.35768 0.827374 1.53492 1.53615 10.1662 3.6795 6.11022 1.1013 5.84324 0.533845 2.59694 0.488842 7.86726 0.886106 1.83958 1.49691 2.58264 3.22859 0.531019 6.86604 1.42578 2.20249 3.61657 7.07668 0.36601 3.11304 4.21493 2.16393 2.56445 5.49129 0.494525 5.42467 0.805959 0.339532 5.29775 7.7175 2.1119 7.42605 0.434777 0.812616 0.977532 6.31462 2.20422 2.88333 6.23199 0.407603 1.21622 5.00209 4.24788 1.76557 3.60164 2.1119 7.42284 0.825105 6.81418 1.15906 3.05858 1.89028 2.73791 1.77821 5.47373 5.66767 5.78119 2.18278 4.03082 0.908741 0.442033 4.71541 1.76932 6.1844 0.815671 5.2579 3.45132 7.14928 2.0926 0.90071 0.668084 5.80975 3.1934 4.146 3.41771 1.95773 9.46218 3.08033 3.81126 1.86742 3.49497 8.19438 3.5637 1.07778 3.63236 1.49147 2.78021 6.7763 0.989048 8.8627 1.07074 0.362779 7.27869 1.30939 0.717946 0.819806 2.34336 5.84866 1.80413 2.83277 1.785 3.58181 1.15906 1.97953 7.07831 3.96215 7.71406 
</DataArray>
<DataArray type="Float64" Name="wall variable 0" format="ascii">