<VTKFile type="UnstructuredGrid" version="0.1">
<UnstructuredGrid>
<Piece  NumberOfPoints="    1971" NumberOfCells="     330">
<Points>
<DataArray type="Float64" NumberOfComponents="3" format="ascii">
16.1249 -14.344 0.0
16.7034 -11.8157 0.0
15.199 -10.7984 0.0
12.5406 -10.0949 0.0
10.9586 -12.0811 0.0
14.096 -16.7944 0.0
15.0156 -16.6218 0.0
20.9483 -23.1937 0.0
20.1862 -20.329 0.0
17.0683 -20.1987 0.0
13.7414 -23.6075 0.0
17.2655 -27.0486 0.0
19.3483 -25.5502 0.0
23.4306 -31.5564 0.0
22.3027 -35.0408 0.0
25.3645 -34.8918 0.0
29.6934 -28.3899 0.0
29.4689 -27.5565 0.0
26.1593 -29.2072 0.0
-40.3796 17.4667 0.0
-37.2423 16.9327 0.0
-35.3526 19.7471 0.0
-34.8988 20.6674 0.0
-38.4551 23.502 0.0
-39.3474 22.351 0.0
-40.0933 18.8605 0.0
21.4403 -2.4973 0.0
22.0547 -4.34993 0.0
25.2975 -2.93888 0.0
25.6678 1.07669 0.0
25.5239 1.84382 0.0
21.3843 2.1885 0.0
26.122 1.02077 0.0
25.7517 -2.9948 0.0
28.4973 -4.59399 0.0
29.6799 -2.00971 0.0
30.3352 -0.413655 0.0
30.0037 1.03299 0.0
8.5908 39.7881 0.0
5.11593 38.2671 0.0
4.67713 36.0372 0.0
6.11921 35.1406 0.0
8.81926 34.0441 0.0
10.9405 35.9917 0.0
12.5546 38.3621 0.0
11.493 39.0952 0.0
-16.8758 -43.2152 0.0
-20.751 -41.852 0.0
-24.4932 -44.0364 0.0
-21.1637 -46.5362 0.0
-12.0672 -25.7615 0.0
-14.0408 -28.2143 0.0
-11.6744 -30.9628 0.0
-8.13747 -31.872 0.0
-7.44562 -30.3001 0.0
-19.1814 25.9483 0.0
-22.0493 25.1041 0.0
-24.1778 21.2454 0.0
-24.3048 20.5446 0.0
-20.6648 17.9944 0.0
-17.6486 20.881 0.0
-41.7327 -27.8159 0.0
-39.2952 -24.2174 0.0
-45.6535 -22.2047 0.0
-44.4967 -24.9328 0.0
-14.0177 -11.0641 0.0
-14.7524 -7.03003 0.0
-18.8216 -5.14006 0.0
-19.2795 -5.65345 0.0
-20.4671 -7.93822 0.0
-17.9215 -9.1775 0.0
-19.1827 26.5753 0.0
-18.4552 26.8984 0.0
-19.612 31.1937 0.0
-21.5294 30.6172 0.0
-23.4732 26.9701 0.0
-22.0506 25.7311 0.0
0.337934 -9.21007 0.0
1.37376 -8.57887 0.0
1.861 -6.27203 0.0
-1.22586 -3.55349 0.0
-4.37645 -3.15136 0.0
-5.98401 -5.40289 0.0
21.829 -40.6038 0.0
25.8863 -39.0844 0.0
27.157 -37.5925 0.0
25.0921 -35.5208 0.0
22.0303 -35.6697 0.0
20.3855 -37.1483 0.0
18.7776 -38.7307 0.0
-25.8785 -5.99788 0.0
-30.624 -9.70265 0.0
-28.5982 -12.5252 0.0
-27.8125 -12.517 0.0
-24.7848 -9.74134 0.0
-9.99215 16.8576 0.0
-8.13813 18.4812 0.0
-6.79527 20.3926 0.0
-9.48613 22.2654 0.0
-13.3542 17.6034 0.0
43.3197 -13.4867 0.0
44.77 -10.8171 0.0
44.7478 -7.55 0.0
43.7273 -5.45123 0.0
42.5687 -6.07363 0.0
40.6421 -8.37435 0.0
40.1496 -11.9152 0.0
-1.57794 49.6318 0.0
2.32621 48.2984 0.0
3.93553 50.446 0.0
2.64989 50.9623 0.0
-2.90626 51.1852 0.0
-4.24205 50.5171 0.0
8.13578 21.7574 0.0
10.0848 19.805 0.0
13.1826 17.4443 0.0
16.2434 19.0099 0.0
15.3758 20.527 0.0
-36.5187 10.5935 0.0
-37.1612 6.97688 0.0
-34.4649 3.76467 0.0
-32.6132 6.82389 0.0
-34.2416 12.9667 0.0
-35.8507 12.1694 0.0
-31.7618 24.5754 0.0
-31.4682 27.9224 0.0
-35.6029 27.4779 0.0
-38.1146 24.0007 0.0
-34.5583 21.1661 0.0
13.2475 15.8152 0.0
11.3295 12.8587 0.0
13.1001 8.93821 0.0
15.0682 8.16964 0.0
16.1924 9.12357 0.0
17.3958 11.2293 0.0
31.8908 -28.179 0.0
32.8121 -28.8228 0.0
39.4529 -22.0622 0.0
39.605 -20.5211 0.0
38.0535 -20.0028 0.0
-13.7079 53.7714 0.0
-16.7293 50.8246 0.0
-18.1682 48.7702 0.0
-15.6366 48.6523 0.0
-12.2202 49.295 0.0
-11.8466 49.3943 0.0
-12.5528 54.1966 0.0
7.39934 -42.1963 0.0
7.6518 -41.9039 0.0
4.52575 -39.4816 0.0
1.37689 -39.6404 0.0
-0.370241 -43.001 0.0
-14.3329 8.62677 0.0
-13.424 10.4136 0.0
-17.0391 13.7877 0.0
-19.5802 10.9101 0.0
-19.2863 8.51969 0.0
48.3119 -17.3427 0.0
48.7657 -12.8786 0.0
45.096 -11.3495 0.0
43.6457 -14.0191 0.0
42.6438 -16.8954 0.0
45.4341 -18.0062 0.0
-42.7642 9.8807 0.0
-37.6992 10.8547 0.0
-41.8784 14.9726 0.0
-43.1193 13.1404 0.0
16.6666 -19.8921 0.0
14.9799 -17.3339 0.0
14.0602 -17.5065 0.0
11.1323 -18.9632 0.0
11.5088 -21.0987 0.0
12.3124 -23.561 0.0
13.0628 -23.4012 0.0
13.3397 -23.3008 0.0
13.4404 44.4579 0.0
16.3256 43.7775 0.0
12.4422 48.5841 0.0
8.85627 48.7719 0.0
10.6221 45.4647 0.0
-1.44974 13.8608 0.0
4.97397 11.6028 0.0
6.68436 14.3618 0.0
5.27777 15.7314 0.0
2.0446 16.9712 0.0
-1.72598 15.0263 0.0
4.83277 11.2034 0.0
-1.59094 13.4614 0.0
-1.56282 8.91155 0.0
1.58284 8.00983 0.0
3.45393 7.71593 0.0
4.75984 10.5462 0.0
-36.136 -30.6063 0.0
-35.2114 -29.3358 0.0
-36.693 -26.6059 0.0
-38.5451 -24.1765 0.0
-38.8684 -24.5422 0.0
-41.3059 -28.1408 0.0
-38.2681 -30.9312 0.0
-15.0794 -15.2817 0.0
-12.1148 -18.6866 0.0
-8.15462 -15.6048 0.0
-9.69365 -14.2451 0.0
-12.5641 -13.3614 0.0
-12.9044 -13.2584 0.0
-13.2288 31.5606 0.0
-10.905 32.6196 0.0
-9.54678 33.7201 0.0
-16.1737 34.7826 0.0
-17.0351 32.2785 0.0
-40.6533 -9.99115 0.0
-43.3995 -8.00015 0.0
-44.4975 -9.79617 0.0
-43.9904 -13.0715 0.0
-43.1311 -15.7403 0.0
-39.1811 -13.9922 0.0
-2.55991 -26.6794 0.0
-1.92095 -26.8566 0.0
2.80455 -24.7957 0.0
2.8333 -24.6568 0.0
2.70236 -23.3905 0.0
-1.20697 -22.1213 0.0
-3.12103 -21.911 0.0
-22.8345 -11.2982 0.0
-24.5284 -10.1129 0.0
-27.5561 -12.8886 0.0
-24.2338 -17.2837 0.0
30.0011 4.49128 0.0
30.9209 4.85459 0.0
32.2799 10.9864 0.0
29.6119 11.5458 0.0
28.3751 7.98716 0.0
13.5639 16.1698 0.0
17.7123 11.5839 0.0
20.9696 13.3297 0.0
19.5516 16.8964 0.0
16.7154 18.5596 0.0
13.6545 16.9939 0.0
-11.3868 -31.4674 0.0
-11.8364 -32.0264 0.0
-7.58255 -36.781 0.0
-6.79508 -36.8127 0.0
-5.3093 -36.5844 0.0
-4.85239 -34.2323 0.0
-7.84987 -32.3767 0.0
-38.2633 -34.2829 0.0
-38.5219 -31.1634 0.0
-41.5598 -28.373 0.0
-44.3238 -25.4899 0.0
-42.4905 -29.3866 0.0
-40.6205 -32.0415 0.0
27.9647 -41.7172 0.0
20.5944 -45.4764 0.0
19.4727 -47.8728 0.0
22.0654 -47.0267 0.0
26.9579 -44.3648 0.0
29.7916 -42.1151 0.0
12.743 -24.1235 0.0
11.9926 -24.2834 0.0
8.0303 -26.5405 0.0
8.82003 -29.9704 0.0
11.214 -30.3558 0.0
11.5891 -30.2276 0.0
44.0415 15.7719 0.0
43.5268 15.8362 0.0
41.3917 15.3693 0.0
41.7139 11.3278 0.0
42.3672 9.5145 0.0
44.4962 8.89304 0.0
-42.6398 9.46675 0.0
-42.1855 6.14747 0.0
-39.1828 4.83081 0.0
-37.6536 6.93059 0.0
-37.0111 10.5472 0.0
-37.5748 10.4408 0.0
7.38771 14.5475 0.0
10.8799 13.3149 0.0
12.7979 16.2714 0.0
12.8885 17.0955 0.0
9.79068 19.4562 0.0
5.98112 15.9171 0.0
37.7342 32.6983 0.0
34.7965 34.3677 0.0
35.0138 32.2411 0.0
35.8383 30.2604 0.0
38.6881 26.9139 0.0
41.9567 25.0359 0.0
41.3349 26.8075 0.0
39.7276 29.7686 0.0
-10.6555 -50.8179 0.0
-6.52978 -52.6754 0.0
-4.46001 -53.1139 0.0
-1.61959 -52.5391 0.0
-4.86251 -48.4249 0.0
-8.11784 -48.0876 0.0
-27.1033 26.6296 0.0
-26.6066 25.6769 0.0
-23.8003 27.1151 0.0
-21.8566 30.7622 0.0
-22.162 34.1307 0.0
-23.0471 34.0182 0.0
-25.6207 -3.10625 0.0
-25.3653 -4.82332 0.0
-19.8244 -5.18266 0.0
-19.3665 -4.66927 0.0
-20.995 -1.17903 0.0
-22.1518 -0.235376 0.0
0.425622 -16.7979 0.0
-0.899498 -21.6655 0.0
3.00983 -22.9347 0.0
6.38397 -19.2398 0.0
5.31644 -17.451 0.0
2.89238 -17.0896 0.0
-3.07021 23.0226 0.0
-6.26856 20.4988 0.0
-7.61142 18.5874 0.0
-5.6062 17.6132 0.0
-1.33144 22.5514 0.0
0.862168 -39.6711 0.0
-0.364057 -39.2741 0.0
-1.9637 -39.0996 0.0
-4.43184 -43.1637 0.0
-1.77952 -44.4014 0.0
-0.884964 -43.0317 0.0
-44.7916 11.5761 0.0
-45.9147 6.84337 0.0
-44.6357 3.65573 0.0
-42.6243 6.16052 0.0
-43.0787 9.47979 0.0
-43.4337 12.7395 0.0
5.05341 5.77643 0.0
8.84425 4.5715 0.0
10.6146 6.61212 0.0
5.33476 10.2167 0.0
4.02885 7.38639 0.0
-0.0242385 39.5878 0.0
-3.98012 40.3562 0.0
-4.29333 40.1746 0.0
-4.56963 34.867 0.0
-2.12628 34.3895 0.0
0.71973 35.5302 0.0
0.577269 39.2291 0.0
3.04093 -5.79517 0.0
7.44002 -4.10503 0.0
7.70552 -2.45278 0.0
3.96225 -0.0302529 0.0
9.65369 0.31848 0.0
8.26686 -2.42993 0.0
8.00136 -4.08219 0.0
8.75867 -4.67918 0.0
11.5968 -5.83356 0.0
14.1504 -1.99551 0.0
11.9226 -0.886201 0.0
14.5552 -2.29498 0.0
12.0015 -6.13303 0.0
12.6213 -9.36824 0.0
15.2798 -10.0717 0.0
17.9545 -2.87287 0.0
15.5574 -1.6225 0.0
-48.357 -0.561561 0.0
-44.5563 -0.16725 0.0
-44.8716 3.08771 0.0
-46.1505 6.27535 0.0
-48.2055 4.32715 0.0
-34.5363 -29.8882 0.0
-35.4609 -31.1587 0.0
-30.516 -36.6345 0.0
-27.3419 -36.7175 0.0
-28.6958 -34.5024 0.0
-30.2326 -32.2573 0.0
1.50323 -50.982 0.0
-0.879835 -52.7025 0.0
-3.72026 -53.2773 0.0
-1.59787 -53.477 0.0
2.00558 -52.9827 0.0
5.20658 -51.7821 0.0
22.9751 19.3767 0.0
25.1756 19.5961 0.0
24.4792 24.1355 0.0
22.2961 25.8988 0.0
19.3513 27.2082 0.0
17.795 24.6131 0.0
-13.387 -5.17411 0.0
-12.7286 -4.80265 0.0
-12.1759 -1.67136 0.0
-13.7614 1.56699 0.0
-17.1355 0.464302 0.0
-17.5891 -0.0482176 0.0
-1.40681 -3.02716 0.0
-0.426724 -0.67631 0.0
-2.89867 1.04688 0.0
-5.4579 2.38699 0.0
-6.2565 -0.816378 0.0
-4.55739 -2.62503 0.0
-15.0024 -35.5066 0.0
-18.2678 -34.5221 0.0
-19.3499 -37.3646 0.0
-19.3331 -37.7066 0.0
-13.3058 -41.6368 0.0
-11.5582 -41.2582 0.0
-11.9579 -37.4896 0.0
-35.6195 -26.2419 0.0
-36.1238 -26.7131 0.0
-34.6423 -29.443 0.0
-30.3385 -31.8121 0.0
-28.8192 -29.6278 0.0
31.8991 -19.3273 0.0
31.6587 -18.5479 0.0
29.2483 -19.8302 0.0
27.1938 -21.9611 0.0
26.4603 -25.1795 0.0
26.4865 -27.8452 0.0
14.4738 23.341 0.0
17.1892 24.9669 0.0
18.7454 27.562 0.0
16.6635 29.845 0.0
14.3581 29.9334 0.0
13.3715 24.0511 0.0
40.367 1.80381 0.0
40.1836 2.60218 0.0
37.7363 2.62315 0.0
36.9934 -1.04315 0.0
37.3302 -5.80345 0.0
38.5795 -6.3988 0.0
48.1127 3.84532 0.0
49.2967 0.64366 0.0
51.2893 -1.49594 0.0
51.3932 2.32971 0.0
50.469 7.00121 0.0
49.6188 9.08763 0.0
47.8543 10.4478 0.0
47.9241 7.27079 0.0
-14.1531 42.9011 0.0
-17.1572 42.4477 0.0
-18.0596 39.9593 0.0
-18.7303 37.3308 0.0
-16.1777 38.1131 0.0
-14.8518 38.8777 0.0
-4.46656 25.9766 0.0
-2.81334 23.4841 0.0
-1.07457 23.0129 0.0
0.510983 22.8181 0.0
-0.690829 25.373 0.0
-2.40547 27.5434 0.0
34.683 -38.9307 0.0
37.2353 -36.9256 0.0
40.6172 -33.3873 0.0
41.0573 -32.1738 0.0
38.6535 -31.5544 0.0
33.9721 -38.1016 0.0
-25.9332 -21.9039 0.0
-24.5919 -23.6143 0.0
-18.0349 -20.469 0.0
-18.3634 -19.5202 0.0
-19.3614 -18.1839 0.0
-23.6252 -18.5421 0.0
1.20628 26.3073 0.0
-0.146815 25.2831 0.0
1.055 22.7282 0.0
2.34259 22.0267 0.0
6.48106 22.8995 0.0
7.9644 24.2451 0.0
-0.819605 31.1159 0.0
-0.244499 30.1535 0.0
3.307 29.5111 0.0
4.34896 29.4859 0.0
5.48795 34.6855 0.0
4.04587 35.5821 0.0
[...]
<CellData Scalars="cell variable 4" Vectors="cell vector">
<DataArray type="Float64" NumberOfComponents="3" Name="cell vector" format="ascii">
0 0 0
0 0 0
0 0 0
0 0 0
0 0 0
0 0 0
0 0 0
0 0 0
0 0 0
0 0 0
0 0 0
0 0 0
0 0 0
0 0 0
0 0 0
0 0 0
0 0 0
0 0 0
0 0 0
0 0 0
0 0 0
0 0 0
0 0 0
0 0 0
0 0 0
0 0 0
0 0 0
0 0 0
0 0 0
0 0 0
0 0 0
0 0 0
0 0 0
0 0 0
0 0 0
0 0 0
0 0 0
0 0 0
0 0 0
0 0 0
0 0 0
0 0 0
0 0 0
0 0 0
0 0 0
0 0 0
0 0 0
0 0 0
0 0 0
0 0 0
0 0 0
0 0 0
0 0 0
0 0 0
0 0 0
0 0 0
0 0 0
0 0 0
0 0 0
0 0 0
0 0 0
0 0 0
0 0 0
0 0 0
0 0 0
0 0 0
0 0 0
0 0 0
0 0 0
0 0 0
0 0 0
0 0 0
0 0 0
0 0 0
0 0 0
0 0 0
0 0 0
0 0 0
0 0 0
0 0 0
0 0 0
0 0 0
0 0 0
0 0 0
0 0 0
0 0 0
0 0 0
0 0 0
0 0 0
0 0 0
0 0 0
0 0 0
0 0 0
0 0 0
0 0 0
0 0 0
0 0 0
0 0 0
0 0 0
0 0 0
0 0 0
0 0 0
0 0 0
0 0 0
0 0 0
0 0 0
0 0 0
0 0 0
0 0 0
0 0 0
0 0 0
0 0 0
0 0 0
0 0 0
0 0 0
0 0 0
0 0 0
0 0 0
0 0 0
0 0 0
0 0 0
0 0 0
0 0 0
0 0 0
0 0 0
0 0 0
0 0 0
0 0 0
0 0 0
0 0 0
0 0 0
0 0 0
0 0 0
0 0 0
0 0 0
0 0 0
0 0 0
0 0 0
0 0 0
0 0 0
0 0 0
0 0 0
0 0 0
0 0 0
0 0 0
0 0 0
0 0 0
0 0 0
0 0 0
0 0 0
0 0 0
0 0 0
0 0 0
0 0 0
0 0 0
0 0 0
0 0 0
0 0 0
0 0 0
0 0 0
0 0 0
0 0 0
0 0 0
0 0 0
0 0 0
0 0 0
0 0 0
0 0 0
0 0 0
0 0 0
0 0 0
0 0 0
0 0 0
0 0 0
0 0 0
0 0 0
0 0 0
0 0 0
0 0 0
0 0 0
0 0 0
0 0 0
0 0 0
0 0 0
0 0 0
0 0 0
0 0 0
0 0 0
0 0 0
0 0 0
0 0 0
0 0 0
0 0 0
0 0 0
0 0 0
0 0 0
0 0 0
0 0 0
0 0 0
0 0 0
0 0 0
0 0 0
0 0 0
0 0 0
0 0 0
0 0 0
0 0 0
0 0 0
0 0 0
0 0 0
0 0 0
0 0 0
0 0 0
0 0 0
0 0 0
0 0 0
0 0 0
0 0 0
0 0 0
0 0 0
0 0 0
0 0 0
0 0 0
0 0 0
0 0 0
0 0 0
0 0 0
0 0 0
0 0 0
0 0 0
0 0 0
0 0 0
0 0 0
0 0 0
0 0 0
0 0 0
0 0 0
0 0 0
0 0 0
0 0 0
0 0 0
0 0 0
0 0 0
0 0 0
0 0 0
0 0 0
0 0 0
0 0 0
0 0 0
0 0 0
0 0 0
0 0 0
0 0 0
0 0 0
0 0 0
0 0 0
0 0 0
0 0 0
0 0 0
0 0 0
0 0 0
0 0 0
0 0 0
0 0 0
0 0 0
0 0 0
0 0 0
0 0 0
0 0 0
0 0 0
0 0 0
0 0 0
0 0 0
0 0 0
0 0 0
0 0 0
0 0 0
0 0 0
0 0 0
0 0 0
0 0 0
0 0 0
0 0 0
0 0 0
0 0 0
0 0 0
0 0 0
0 0 0
0 0 0
0 0 0
0 0 0
0 0 0
0 0 0
0 0 0
0 0 0
0 0 0
0 0 0
0 0 0
0 0 0
0 0 0
0 0 0
0 0 0
0 0 0
0 0 0
0 0 0
0 0 0
0 0 0
0 0 0
0 0 0
0 0 0
0 0 0
0 0 0
0 0 0
0 0 0
0 0 0
0 0 0
0 0 0
0 0 0
0 0 0
0 0 0
0 0 0
0 0 0
0 0 0
0 0 0
0 0 0
0 0 0
0 0 0
0 0 0
0 0 0
0 0 0
</DataArray>
<DataArray type="Float64" Name="cell vector length" format="ascii">
0 0 0 0 0 0 0 0 0 0 0 0 0 0 0 0 0 0 0 0 0 0 0 0 0 0 0 0 0 0 0 0 0 0 0 0 0 0 0 0 0 0 0 0 0 0 0 0 0 0 0 0 0 0 0 0 0 0 0 0 0 0 0 0 0 0 0 0 0 0 0 0 0 0 0 0 0 0 0 0 0 0 0 0 0 0 0 0 0 0 0 0 0 0 0 0 0 0 0 0 0 0 0 0 0 0 0 0 0 0 0 0 0 0 0 0 0 0 0 0 0 0 0 0 0 0 0 0 0 0 0 0 0 0 0 0 0 0 0 0 0 0 0 0 0 0 0 0 0 0 0 0 0 0 0 0 0 0 0 0 0 0 0 0 0 0 0 0 0 0 0 0 0 0 0 0 0 0 0 0 0 0 0 0 0 0 0 0 0 0 0 0 0 0 0 0 0 0 0 0 0 0 0 0 0 0 0 0 0 0 0 0 0 0 0 0 0 0 0 0 0 0 0 0 0 0 0 0 0 0 0 0 0 0 0 0 0 0 0 0 0 0 0 0 0 0 0 0 0 0 0 0 0 0 0 0 0 0 0 0 0 0 0 0 0 0 0 0 0 0 0 0 0 0 0 0 0 0 0 0 0 0 0 0 0 0 0 0 0 0 0 0 0 0 0 0 0 0 0 0 0 0 0 0 0 0 0 0 0 0 0 0 0 0 0 0 0 0 0 0 0 0 0 0 0 0 0 0 0 0 
</DataArray>
<DataArray type="Float64" Name="cell variable 4" format="ascii">
0.316217 0.000510187 7.22055e-10 1.1392e-10 0.249242 0.0032488 1.23542e-08 5.06408e-13 0.000319359 0.000137838 9.78894e-13 0.479217 5.48914e-07 1.04461 2.5153e-11 0.000586701 0.334198 4.77775e-11 2.14504e-13 0.161465 1.34433e-07 1.43573e-10 0.511974 1.79224e-10 2.32146e-14 1.06024e-10 0.393381 8.0853e-13 2.48184e-10 0.163146 9.42051e-13 0.626025 0.980966 1.75394e-12 0.437452 1.19294e-07 4.633e-11 0.184973 0.00760007 4.69927e-06 0.252014 1.1995e-07 1.0791e-13 1.08668e-13 0.000160982 5.75207e-12 8.58362e-10 0.434405 8.1913e-13 9.33834e-14 3.42967e-09 0.23011 0.442722 0.33356 3.05763e-10 1.53946e-11 1.06245 2.68958e-08 1.11547 0.912892 0.573608 3.35388e-12 6.26079e-12 3.62571e-14 1.55471e-05 0.542818 1.12037 6.17036e-10 1.36606e-10 1.97283e-08 4.18495e-05 2.5907e-09 2.35345e-13 5.84028e-11 0.0976075 7.68667e-14 0.000116047 0.0505895 5.96913e-06 1.61534e-05 5.26566e-05 2.73299e-11 5.60239e-07 9.71611e-13 1.81312e-09 8.20491e-13 1.55214e-11 1.10185 1.14226 0.371127 5.12565e-14 0.708918 3.8559e-13 1.82626e-12 4.42555e-05 0.00273317 0.118662 7.85135e-13 2.90644e-14 3.14565e-11 0.503886 5.73e-12 1.68594e-06 4.8591e-12 4.44145e-11 2.814e-10 2.22629e-12 5.76039e-06 3.47057e-13 9.51839e-14 3.83176e-13 1.11565e-11 1.3423e-11 0.673042 3.49399e-07 8.33062e-06 2.42345e-06 6.16323e-05 1.6923e-08 0.789941 6.21845e-13 1.12502e-11 3.37504e-10 4.46645e-09 2.16e-11 0.000425284 6.21089e-10 7.13306e-11 0.99432 5.20703e-14 2.06819e-12 3.18802e-14 5.41779e-08 0.000705084 0.66381 5.50953e-14 5.22026e-13 4.32436e-12 2.10901e-08 1.18023e-09 2.34778e-08 1.00681 7.58754e-07 1.95527e-13 1.73379e-12 2.90155e-14 2.88095e-08 6.97512e-07 3.13132e-09 8.68069e-05 0.0773391 5.37776e-11 0.00151096 0.919422 1.16697e-08 7.29789e-07 1.85341e-12 2.00391e-09 1.12956e-11 0.000237451 3.42138e-05 0.94865 0.848855 2.59037e-13 1.10621e-08 5.78851e-09 0.657465 8.723e-13 6.30556e-13 3.48747e-09 4.14778e-14 1.36504e-12 0.00403603 1.03617e-13 2.4788e-08 3.89469e-09 2.0118e-13 3.72001e-12 0.130161 0.0824302 9.53305e-13 0.179448 2.86502e-13 1.32488e-09 0.00103121 1.89305e-07 1.2938e-10 1.41816e-10 0.313432 0.136507 6.83616e-13 3.01178e-10 1.07467 8.75867e-11 1.36132e-10 2.06659e-11 6.13175e-07 6.80038e-10 1.5044e-05 3.52153e-13 0.790107 2.44056e-08 2.28015e-11 3.58878e-10 1.84661e-13 0.50937 0.45141 3.48316e-07 7.55742e-08 2.44034e-13 0.514292 0.000157331 4.61276e-06 0.495708 1.0952e-09 0.153908 7.50844e-12 4.76435e-12 1.38398e-06 1.23799e-05 7.27365e-13 3.28772e-13 3.34221e-13 0.00145277 3.05783e-14 0.8063 0.000331293 0.332003 2.73979e-13 0.763876 1.76443e-09 0.90618 1.25207e-10 0.187543 8.15157e-13 0.0646441 3.38072e-08 1.14453e-06 0.00370628 0.631062 7.9236e-08 1.73262e-10 0.343308 0.32239 0.000306373 0.399988 5.52696e-11 0.736473 2.24794e-07 5.6859e-12 5.98214e-11 0.393247 9.86599e-09 0.36504 1.60998e-08 1.04772e-07 1.86103e-08 3.09214e-07 0.0097703 1.5272e-11 1.65194e-09 1.09841e-08 0.184059 4.92599e-13 0.000209614 0.27464 0.0978407 0.0505895 2.73299e-11 4.61276e-06 0.000319359 6.80038e-10 5.06408e-13 0.542818 7.29789e-07 4.76435e-12 0.136507 3.49399e-07 0.184973 5.37776e-11 0.187543 3.42138e-05 1.79224e-10 1.73262e-10 5.20703e-14 0.000157331 0.00760007 2.5907e-09 2.16e-11 3.42967e-09 1.14453e-06 0.23011 2.34778e-08 8.15157e-13 4.46645e-09 0.0032488 1.06024e-10 2.24794e-07 1.0952e-09 1.16697e-08 7.9236e-08 1.1995e-07 1.68594e-06 0.179448 9.78894e-13 0.118662 0.000160982 8.723e-13 1.10621e-08 1.61534e-05 0.631062 1.73379e-12 6.13175e-07 7.27365e-13 1.97283e-08 0.153908 5.22026e-13 1.11547 5.50953e-14 5.48914e-07 0.0824302 0.32239 0.161465 2.48184e-10 4.69927e-06 5.75207e-12 3.72001e-12 2.10901e-08 0.00103121 1.36606e-10 
</DataArray>
<DataArray type="Float64" Name="cell variable 5" format="ascii">
0.0909148 0.999974 1 1 0.138655 0.998946 1 1 0.99999 0.999998 1 0.0417277 1 0.00908091 1 0.999966 0.082177 1 1 0.277231 1 1 0.0367488 1 1 1 0.0606986 1 1 0.273099 1 0.0248813 0.0102849 1 0.0496613 1 1 0.226167 0.994257 1 0.136034 1 1 1 0.999997 1 1 0.0503251 1 1 1 0.158855 0.0485429 0.0824658 1 1 0.00878122 1 0.00797274 0.0118572 0.0294962 1 1 1 1 0.0328244 0.00790366 1 1 1 1 1 1 1 0.512105 1 0.999999 0.796223 1 1 1 1 1 1 1 1 1 0.00816951 0.00760594 0.0676886 1 0.0195097 1 1 1 0.999254 0.415271 1 1 1 0.037893 1 1 1 1 1 1 1 1 1 1 1 1 0.021599 1 1 1 1 1 0.0157727 1 1 1 1 1 0.999982 1 1 0.0100133 1 1 1 1 0.99995 0.0221905 1 1 1 1 1 1 0.00976872 1 1 1 1 1 1 1 0.999999 0.62573 1 0.999772 0.0116913 1 1 1 1 1 0.999994 1 0.0109898 0.0136882 1 1 1 0.0226112 1 1 1 1 1 0.998374 1 1 1 1 1 0.371169 0.595425 1 0.236958 1 1 0.999894 1 1 1 0.0923878 0.349234 1 1 0.00858434 1 1 1 1 1 1 1 0.0157662 1 1 1 1 0.0371116 0.0467791 1 1 1 0.0364304 0.999998 1 0.0391044 1 0.296844 1 1 1 1 1 1 1 0.999789 1 0.0151488 0.999989 0.0831765 1 0.016849 1 0.0120314 1 0.221374 1 0.705275 1 1 0.998628 0.0244954 1 1 0.0782104 0.0877689 0.999991 0.0588268 1 0.0181031 1 1 1 0.0607373 1 0.0698059 1 1 1 1 0.990544 1 1 1 0.227907 1 0.999996 0.117059 0.510913 0.796223 1 1 0.99999 1 1 0.0328244 1 1 0.349234 1 0.226167 1 0.221374 1 1 1 1 0.999998 0.994257 1 1 1 1 0.158855 1 1 1 0.998946 1 1 1 1 1 1 1 0.236958 1 0.415271 0.999997 1 1 1 0.0244954 1 1 1 1 0.296844 1 0.00797274 1 1 0.595425 0.0877689 0.277231 1 1 1 1 1 0.999894 1 
</DataArray>
<DataArray type="Float64" Name="cell variable 6" format="ascii">
0.0038835 1.00883 1.00917 1.00917 0.0566856 1.00681 1.00917 1.00917 1.00896 1.00908 1.00917 0.00051123 1.00917 6.33494e-06 1.00917 1.00878 0.00576492 1.00917 1.00917 0.298329 1.00917 1.00917 0.00035504 1.00917 1.00917 1.00917 0.00151522 1.00917 1.00917 0.294057 1.00917 0.000115922 9.11938e-06 1.00917 0.000885689 1.00917 1.00917 0.208208 1.00277 1.00917 0.0441278 1.00917 1.00917 1.00917 1.00907 1.00917 1.00917 0.000857904 1.00917 1.00917 1.00917 0.0671729 0.000858618 0.00403961 1.00917 1.00917 5.74138e-06 1.00917 4.32387e-06 1.38076e-05 0.000187165 1.00917 1.00917 1.00917 1.00916 0.000251962 4.21468e-06 1.00917 1.00917 1.00917 1.00915 1.00917 1.00917 1.00917 0.67289 1.00917 1.0091 0.900072 1.00917 1.00916 1.00914 1.00917 1.00917 1.00917 1.00917 1.00917 1.00917 4.64493e-06 3.76475e-06 0.0019189 1.00917 5.81379e-05 1.00917 1.00917 1.00914 1.00716 0.533485 1.00917 1.00917 1.00917 0.000380196 1.00917 1.00917 1.00917 1.00917 1.00917 1.00917 1.00917 1.00917 1.00917 1.00917 1.00917 1.00917 7.76673e-05 1.00917 1.00917 1.00917 1.00913 1.00917 3.156e-05 1.00917 1.00917 1.00917 1.00917 1.00917 1.00889 1.00917 1.00917 8.43313e-06 1.00917 1.00917 1.00917 1.00917 1.0087 8.3838e-05 1.00917 1.00917 1.00917 1.00917 1.00917 1.00917 7.8448e-06 1.00917 1.00917 1.00917 1.00917 1.00917 1.00917 1.00917 1.00912 0.780596 1.00917 1.00816 1.32528e-05 1.00917 1.00917 1.00917 1.00917 1.00917 1.00902 1.00915 1.10661e-05 2.09522e-05 1.00917 1.00917 1.00917 8.84138e-05 1.00917 1.00917 1.00917 1.00917 1.00917 1.00605 1.00917 1.00917 1.00917 1.00917 1.00917 0.477444 0.752638 1.00917 0.235078 1.00917 1.00917 1.00849 1.00917 1.00917 1.00917 0.00439847 0.432355 1.00917 1.00917 5.3719e-06 1.00917 1.00917 1.00917 1.00917 1.00917 1.00916 1.00917 3.15261e-05 1.00917 1.00917 1.00917 1.00917 0.000394946 0.000696942 1.00917 1.00917 1.00917 0.000349016 1.00907 1.00917 0.000410215 1.00917 0.3398 1.00917 1.00917 1.00917 1.00917 1.00917 1.00917 1.00917 1.00814 1.00917 2.80904e-05 1.00895 0.00364689 1.00917 3.81646e-05 1.00917 1.4406e-05 1.00917 0.185318 1.00917 0.841792 1.00917 1.00917 1.00642 0.000110922 1.00917 1.00917 0.00310284 0.00628005 1.00897 0.00127682 1.00917 4.69278e-05 1.00917 1.00917 1.00917 0.00202135 1.00917 0.0019794 1.00917 1.00917 1.00917 1.00917 1.00014 1.00917 1.00917 1.00917 0.235443 1.00917 1.00904 0.02163 0.674122 0.900072 1.00917 1.00917 1.00896 1.00917 1.00917 0.000251962 1.00917 1.00917 0.432355 1.00917 0.208208 1.00917 0.185318 1.00915 1.00917 1.00917 1.00917 1.00907 1.00277 1.00917 1.00917 1.00917 1.00917 0.0671729 1.00917 1.00917 1.00917 1.00681 1.00917 1.00917 1.00917 1.00917 1.00917 1.00917 1.00917 0.235078 1.00917 0.533485 1.00907 1.00917 1.00917 1.00916 0.000110922 1.00917 1.00917 1.00917 1.00917 0.3398 1.00917 4.32387e-06 1.00917 1.00917 0.752638 0.00628005 0.298329 1.00917 1.00917 1.00917 1.00917 1.00917 1.00849 1.00917 
</DataArray>
<DataArray type="Float64" Name="cell variable 7" format="ascii">
0.357275 0.805214 0.978092 0.988818 0.413855 0.731648 0.944982 0.994685 0.786592 0.818915 0.993483 0.24144 0.895885 0.091923 0.989084 0.789622 0.334908 0.989411 0.998841 0.543895 0.953353 0.985799 0.2268 0.985845 1.00092 0.987264 0.290041 0.998525 0.983128 0.531783 0.992442 0.185875 0.103782 0.990411 0.262734 0.924335 0.988661 0.488241 0.695937 0.865788 0.422896 0.91048 0.997008 1.00172 0.804465 0.987088 0.980133 0.264653 0.991034 0.999503 0.963699 0.46057 0.259721 0.337987 0.973562 0.99226 0.0886341 0.95837 0.0788486 0.116913 0.203114 0.995708 0.986261 1.00151 0.87201 0.214434 0.0779382 0.968141 0.97158 0.947968 0.828165 0.967203 0.99644 0.984507 0.58928 1.00361 0.821805 0.667622 0.876672 0.855098 0.808066 0.980165 0.910934 0.997889 0.951959 1.00169 0.991878 0.0813708 0.0738515 0.306453 1.00149 0.162493 0.994971 0.992078 0.85435 0.786302 0.633332 0.999409 1.00014 0.994724 0.230311 0.992247 0.922196 0.993424 0.98225 0.982487 0.998131 0.912087 1.00344 1.00249 0.999787 0.987627 0.99489 0.172124 0.887905 0.869271 0.886845 0.804393 0.966248 0.142859 0.996819 0.999395 0.974211 0.96428 0.987688 0.777768 0.969761 0.985824 0.10127 0.997763 0.994612 1.00237 0.955764 0.790771 0.174715 1.00165 0.994101 0.996076 0.945385 0.96829 0.922008 0.0989326 0.900971 0.996832 0.995481 1.00397 0.95287 0.921346 0.970096 0.812727 0.646851 0.979721 0.723507 0.115625 0.962378 0.91184 0.996643 0.966983 0.990645 0.815305 0.881455 0.109939 0.129973 0.998061 0.947397 0.969413 0.176526 0.996302 0.995339 0.970553 1.00209 0.994013 0.781706 0.997327 0.95286 0.960718 0.999721 0.995783 0.557964 0.652741 0.998509 0.481302 0.999409 0.978562 0.74517 0.938631 0.98041 0.9868 0.360012 0.58017 0.999374 0.975103 0.0863829 0.983673 0.986005 0.977907 0.926956 0.962912 0.867885 0.994962 0.142821 0.952017 0.98832 0.967409 1.00069 0.227704 0.255368 0.905229 0.926812 1.00105 0.225806 0.802201 0.89681 0.233945 0.965959 0.544906 0.989109 0.987181 0.900885 0.864126 0.997658 0.998671 1.00028 0.822606 1.00321 0.139181 0.823381 0.340125 0.99635 0.148901 0.962923 0.118245 0.986201 0.511928 0.991957 0.663687 0.960394 0.908704 0.736426 0.184332 0.937093 0.978337 0.329428 0.347352 0.774006 0.285858 0.988558 0.15552 0.921969 0.990758 0.988722 0.288948 0.963751 0.311423 0.969235 0.926865 0.933796 0.914119 0.724735 0.990516 0.973522 0.955946 0.426674 1.00277 0.803638 0.399197 0.570965 0.667622 0.980165 0.89681 0.786592 0.962912 0.994685 0.214434 0.91184 0.987181 0.58017 0.887905 0.488241 0.979721 0.511928 0.881455 0.985845 0.978337 0.997763 0.802201 0.695937 0.967203 0.987688 0.963699 0.908704 0.46057 0.922008 0.991957 0.96428 0.731648 0.987264 0.921969 0.965959 0.962378 0.937093 0.91048 0.922196 0.481302 0.993483 0.633332 0.804465 0.996302 0.947397 0.855098 0.184332 0.995481 0.926956 0.997658 0.947968 0.544906 0.994101 0.0788486 1.00165 0.895885 0.652741 0.347352 0.543895 0.983128 0.865788 0.987088 0.995783 0.945385 0.74517 0.97158 
</DataArray>
<DataArray type="Float64" Name="cell variable 8" format="ascii">
0.962156 0.00548041 6.78582e-06 2.70073e-06 0.303101 0.0135919 2.78869e-05 1.80258e-07 0.0043084 0.00285712 2.50564e-07 0.972028 0.000183894 1 1.26911e-06 0.00584984 0.666978 1.7492e-06 1.17405e-07 0.168883 9.21472e-05 3.03024e-06 0.981646 3.38566e-06 3.86375e-08 2.60472e-06 0.924592 2.27925e-07 3.9821e-06 0.166567 2.45757e-07 0.999812 1 3.35209e-07 0.929319 8.62799e-05 1.72227e-06 0.186675 0.020738 0.000534122 0.366499 8.62524e-05 8.32445e-08 8.36067e-08 0.00307463 6.06674e-07 7.40148e-06 0.964322 2.29104e-07 7.74736e-08 1.47484e-05 0.336447 0.914192 0.824573 4.41202e-06 9.93431e-07 1 4.12579e-05 1 0.999999 0.998866 4.63979e-07 6.32838e-07 4.82914e-08 0.000973078 0.998786 1 6.26108e-06 2.94792e-06 3.52615e-05 0.00157806 1.2827e-05 1.22923e-07 1.93221e-06 0.0951343 7.03403e-08 0.00262361 0.0604524 0.000603628 0.000987578 0.00175981 1.3207e-06 0.000186424 2.49827e-07 1.06984e-05 2.29733e-07 9.97445e-07 1 1 0.947461 5.74178e-08 0.999602 1.573e-07 3.42153e-07 0.00163446 0.0126922 0.124254 2.24638e-07 4.32264e-08 1.4207e-06 0.990018 6.0608e-07 0.000324206 5.58243e-07 1.68429e-06 4.23971e-06 3.78185e-07 0.000597944 1.49459e-07 7.82584e-08 1.56942e-07 8.44987e-07 9.28078e-07 0.999753 0.000146438 0.000711791 0.000385569 0.00190183 3.27773e-05 0.999979 1.99826e-07 8.50337e-07 4.63595e-06 1.68325e-05 1.17576e-06 0.00495907 6.28357e-06 2.1359e-06 1 5.78335e-08 3.64279e-07 4.52898e-08 5.85262e-05 0.00641749 0.999909 5.95308e-08 1.82997e-07 5.26882e-07 3.64391e-05 8.65944e-06 3.82569e-05 1 0.000216461 1.12051e-07 3.33584e-07 4.32193e-08 4.26536e-05 0.000208494 1.41098e-05 0.0022629 0.0818281 1.85247e-06 0.00919472 1 2.7198e-05 0.000212815 3.44971e-07 1.12807e-05 8.5071e-07 0.00374714 0.00144698 1 0.999982 1.29e-07 2.64013e-05 1.91815e-05 0.999984 2.36648e-07 2.01167e-07 1.48919e-05 5.16566e-08 2.95914e-07 0.0154594 8.15767e-08 3.95647e-05 1.57073e-05 1.13718e-07 4.88655e-07 0.124702 0.0868451 2.4749e-07 0.170768 1.35699e-07 9.19273e-06 0.0076483 0.000109019 2.87369e-06 3.01219e-06 0.917706 0.1384 2.09611e-07 4.3801e-06 1 2.36586e-06 2.95078e-06 1.14797e-06 0.000195722 6.56627e-06 0.000956208 1.50325e-07 0.999916 3.92516e-05 1.20816e-06 4.77426e-06 1.08968e-07 0.939696 0.971081 0.000146805 6.87099e-05 1.25275e-07 0.97802 0.00303742 0.000533206 0.995422 8.33792e-06 0.155249 6.93393e-07 5.52145e-07 0.000292339 0.000866582 2.16148e-07 1.45346e-07 1.46587e-07 0.00932202 4.43619e-08 0.999998 0.00443775 0.883754 1.32627e-07 0.999984 1.05768e-05 1 2.83e-06 0.213109 2.28586e-07 0.0718918 4.62745e-05 0.000266324 0.014563 0.999805 7.05087e-05 3.32422e-06 0.888357 0.697714 0.00420238 0.971384 1.88106e-06 0.999645 0.000118378 6.0358e-07 1.95705e-06 0.787055 2.50146e-05 0.972414 3.19886e-05 8.09021e-05 3.41473e-05 0.000138597 0.023953 9.89153e-07 1.02551e-05 2.63534e-05 0.147616 1.7804e-07 0.00350806 0.488904 0.093308 0.0604524 1.3207e-06 0.000533206 0.0043084 6.56627e-06 1.80258e-07 0.998786 0.000212815 5.52145e-07 0.1384 0.000146438 0.186675 1.85247e-06 0.213109 0.00144698 3.38566e-06 3.32422e-06 5.78335e-08 0.00303742 0.020738 1.2827e-05 1.17576e-06 1.47484e-05 0.000266324 0.336447 3.82569e-05 2.28586e-07 1.68325e-05 0.0135919 2.60472e-06 0.000118378 8.33792e-06 2.7198e-05 7.05087e-05 8.62524e-05 0.000324206 0.170768 2.50564e-07 0.124254 0.00307463 2.36648e-07 2.64013e-05 0.000987578 0.999805 3.33584e-07 0.000195722 2.16148e-07 3.52615e-05 0.155249 1.82997e-07 1 5.95308e-08 0.000183894 0.0868451 0.697714 0.168883 3.9821e-06 0.000534122 6.06674e-07 4.88655e-07 3.64391e-05 0.0076483 2.94792e-06 
</DataArray>
<DataArray type="Float64" Name="cell variable 9" format="ascii">
0 0 0 0 0 0 0 0 0 0 0 0 0 0 0 0 0 0 0 0 0 0 0 0 0 0 0 0 0 0 0 0 0 0 0 0 0 0 0 0 0 0 0 0 0 0 0 0 0 0 0 0 0 0 0 0 0 0 0 0 0 0 0 0 0 0 0 0 0 0 0 0 0 0 0 0 0 0 0 0 0 0 0 0 0 0 0 0 0 0 0 0 0 0 0 0 0 0 0 0 0 0 0 0 0 0 0 0 0 0 0 0 0 0 0 0 0 0 0 0 0 0 0 0 0 0 0 0 0 0 0 0 0 0 0 0 0 0 0 0 0 0 0 0 0 0 0 0 0 0 0 0 0 0 0 0 0 0 0 0 0 0 0 0 0 0 0 0 0 0 0 0 0 0 0 0 0 0 0 0 0 0 0 0 0 0 0 0 0 0 0 0 0 0 0 0 0 0 0 0 0 0 0 0 0 0 0 0 0 0 0 0 0 0 0 0 0 0 0 0 0 0 0 0 0 0 0 0 0 0 0 0 0 0 0 0 0 0 0 0 0 0 0 0 0 0 0 0 0 0 0 0 0 0 0 0 0 0 0 0 0 0 0 0 0 0 0 0 0 0 0 0 0 0 0 0 0 0 0 0 0 0 0 0 0 0 0 0 0 0 0 0 0 0 0 0 0 0 0 0 0 0 0 0 0 0 0 0 0 0 0 0 0 0 0 0 0 0 0 0 0 0 0 0 0 0 0 0 0 0 
</DataArray>
<DataArray type="Float64" Name="cell variable 10" format="ascii">
0 0 0 0 0 0 0 0 0 0 0 0 0 0 0 0 0 0 0 0 0 0 0 0 0 0 0 0 0 0 0 0 0 0 0 0 0 0 0 0 0 0 0 0 0 0 0 0 0 0 0 0 0 0 0 0 0 0 0 0 0 0 0 0 0 0 0 0 0 0 0 0 0 0 0 0 0 0 0 0 0 0 0 0 0 0 0 0 0 0 0 0 0 0 0 0 0 0 0 0 0 0 0 0 0 0 0 0 0 0 0 0 0 0 0 0 0 0 0 0 0 0 0 0 0 0 0 0 0 0 0 0 0 0 0 0 0 0 0 0 0 0 0 0 0 0 0 0 0 0 0 0 0 0 0 0 0 0 0 0 0 0 0 0 0 0 0 0 0 0 0 0 0 0 0 0 0 0 0 0 0 0 0 0 0 0 0 0 0 0 0 0 0 0 0 0 0 0 0 0 0 0 0 0 0 0 0 0 0 0 0 0 0 0 0 0 0 0 0 0 0 0 0 0 0 0 0 0 0 0 0 0 0 0 0 0 0 0 0 0 0 0 0 0 0 0 0 0 0 0 0 0 0 0 0 0 0 0 0 0 0 0 0 0 0 0 0 0 0 0 0 0 0 0 0 0 0 0 0 0 0 0 0 0 0 0 0 0 0 0 0 0 0 0 0 0 0 0 0 0 0 0 0 0 0 0 0 0 0 0 0 0 0 0 0 0 0 0 0 0 0 0 0 0 0 0 0 0 0 0 
</DataArray>
<DataArray type="Float64" Name="cell variable 11" format="ascii">
0 0 0 0 0 0 0 0 0 0 0 0 0 0 0 0 0 0 0 0 0 0 0 0 0 0 0 0 0 0 0 0 0 0 0 0 0 0 0 0 0 0 0 0 0 0 0 0 0 0 0 0 0 0 0 0 0 0 0 0 0 0 0 0 0 0 0 0 0 0 0 0 0 0 0 0 0 0 0 0 0 0 0 0 0 0 0 0 0 0 0 0 0 0 0 0 0 0 0 0 0 0 0 0 0 0 0 0 0 0 0 0 0 0 0 0 0 0 0 0 0 0 0 0 0 0 0 0 0 0 0 0 0 0 0 0 0 0 0 0 0 0 0 0 0 0 0 0 0 0 0 0 0 0 0 0 0 0 0 0 0 0 0 0 0 0 0 0 0 0 0 0 0 0 0 0 0 0 0 0 0 0 0 0 0 0 0 0 0 0 0 0 0 0 0 0 0 0 0 0 0 0 0 0 0 0 0 0 0 0 0 0 0 0 0 0 0 0 0 0 0 0 0 0 0 0 0 0 0 0 0 0 0 0 0 0 0 0 0 0 0 0 0 0 0 0 0 0 0 0 0 0 0 0 0 0 0 0 0 0 0 0 0 0 0 0 0 0 0 0 0 0 0 0 0 0 0 0 0 0 0 0 0 0 0 0 0 0 0 0 0 0 0 0 0 0 0 0 0 0 0 0 0 0 0 0 0 0 0 0 0 0 0 0 0 0 0 0 0 0 0 0 0 0 0 0 0 0 0 0 
</DataArray>