<VTKFile type="UnstructuredGrid" version="0.1">
<UnstructuredGrid>
<Piece  NumberOfPoints="    3304" NumberOfCells="    2426">
<Points>
<DataArray type="Float64" NumberOfComponents="3" format="ascii">
20.4291 51.6939 0 
25.2577 21.3536 0 
-28.3584 -35.4051 0 
-8.29896 9.59416 0 
28.5139 7.63544 0 
-35.3627 3.37346 0 
-16.4824 -6.05796 0 
1.73619 -14.8018 0 
-39.7292 -10.7078 0 
6.35737 31.1529 0 
42.5275 -1.82791 0 
9.99652 50.4858 0 
-40.4813 -0.128508 0 
10.7761 13.8516 0 
45.7116 42.1377 0 
10.7276 -30.4356 0 
23.8648 -22.0748 0 
-21.1104 54.3649 0 
-30.6341 -22.3013 0 
41.4433 -34.1488 0 
35.986 -26.8517 0 
58.0516 23.1364 0 
-38.9539 34.1519 0 
19.532 4.29936 0 
-10.8058 44.1063 0 
-35.9325 35.0224 0 
-23.9685 -34.9312 0 
23.7003 -53.6581 0 
28.3419 -28.2911 0 
-12.2216 -1.03177 0 
5.39402 -58.373 0 
-13.6024 0.280167 0 
-30.0842 -56.2946 0 
-40.791 39.2292 0 
5.5186 -52.8951 0 
-20.232 -44.7309 0 
-29.6035 1.37404 0 
28.1079 19.6924 0 
-15.6372 13.8899 0 
-63.5914 8.17705 0 
-7.92455 8.12981 0 
-45.6168 22.3676 0 
-1.39562 -31.1068 0 
50.5954 26.4586 0 
13.1694 -63.2391 0 
35.1568 -40.6445 0 
-37.4419 -1.16132 0 
23.5811 30.3866 0 
11.8383 27.5888 0 
-37.3255 35.8296 0 
7.57854 59.979 0 
1.30524 35.8147 0 
-7.03659 46.6597 0 
59.208 8.51977 0 
35.7891 23.453 0 
-7.2075 39.2357 0 
-1.64376 43.1382 0 
32.0278 29.0196 0 
10.2278 12.9911 0 
-15.9262 46.6341 0 
36.0153 23.3545 0 
22.0777 -7.22196 0 
-42.2373 9.57653 0 
-11.7381 -1.10743 0 
-12.7178 -54.2801 0 
46.5283 -26.5135 0 
-33.3058 -43.4297 0 
29.848 -19.734 0 
29.78 -26.6564 0 
-18.186 36.832 0 
44.1959 -11.4184 0 
-38.2423 -16.216 0 
-56.0259 1.2975 0 
-2.04158 -7.04324 0 
51.2628 9.87482 0 
58.43 -7.90801 0 
-43.169 13.5341 0 
-15.9583 30.8755 0 
-14.0631 -61.1872 0 
23.4855 5.56026 0 
-11.1695 26.5995 0 
31.6905 46.0649 0 
-32.2652 -32.6451 0 
-58.3488 21.8733 0 
-3.71036 -24.6865 0 
-12.8609 -24.4265 0 
39.3334 -19.8203 0 
-6.47962 17.2303 0 
39.5374 43.5448 0 
-21.8091 7.32636 0 
55.6241 31.2289 0 
-20.2015 28.2272 0 
21.7957 -13.8679 0 
24.7536 38.161 0 
-22.0136 -7.68632 0 
-31.5246 -55.8716 0 
7.69137 36.2964 0 
-44.3776 -41.9874 0 
-34.5326 50.8276 0 
34.5324 34.3693 0 
10.2045 -23.196 0 
-6.3007 2.28251 0 
-36.5334 -10.7139 0 
-46.3561 -14.7124 0 
39.29 2.04199 0 
-44.6842 -0.22919 0 
-44.0101 -21.8897 0 
34.7408 -1.76873 0 
17.1356 56.3784 0 
-15.8977 -31.102 0 
-3.57534 -12.9106 0 
-45.3759 36.0065 0 
-23.3053 15.8284 0 
30.93 -49.073 0 
17.2332 -47.3957 0 
-0.473173 -44.6453 0 
37.222 13.9364 0 
4.97738 41.8697 0 
-22.9728 47.7981 0 
-21.7645 -42.1431 0 
-20.7345 55.8865 0 
23.3928 -1.84486 0 
-52.7634 -4.88993 0 
-3.6481 35.9036 0 
-23.4235 2.90182 0 
-5.44444 -7.44556 0 
50.3018 1.36951 0 
55.1484 31.8059 0 
14.84 16.7941 0 
-5.50428 -55.2105 0 
-23.2476 -47.0831 0 
-21.8747 -11.1233 0 
36.5853 13.3309 0 
-54.6251 9.86208 0 
-11.9507 -8.49213 0 
-59.7311 9.23325 0 
26.3622 40.5579 0 
26.7454 48.508 0 
12.4742 27.7814 0 
13.2006 -7.50366 0 
-54.0081 -25.816 0 
37.3168 -8.61746 0 
4.25763 18.5877 0 
-20.6367 53.8116 0 
-39.5773 -9.66593 0 
-38.3487 46.7495 0 
18.1213 -53.4006 0 
46.7793 -25.9504 0 
-6.51201 -47.474 0 
-26.1917 26.0017 0 
37.7115 -47.4774 0 
48.4337 17.9036 0 
-45.9034 -36.1826 0 
32.9226 -50.8645 0 
42.0788 -2.55438 0 
47.3479 30.9658 0 
38.7738 7.25347 0 
-24.5836 -35.257 0 
51.9842 -34.1681 0 
52.4224 22.4326 0 
54.7431 -29.6512 0 
-39.3226 -47.503 0 
-16.6802 -30.1789 0 
26.2034 49.5372 0 
6.14387 -32.2575 0 
-18.6942 36.8004 0 
-21.7814 -8.80158 0 
-39.3715 -45.5048 0 
3.67196 55.9625 0 
28.6465 -47.2015 0 
28.4198 -36.6556 0 
29.3164 35.0628 0 
-13.5614 -34.3897 0 
22.796 23.2244 0 
19.8107 -23.9948 0 
55.3402 -12.2491 0 
-24.3077 13.5476 0 
-31.0608 43.367 0 
-51.8575 -33.7592 0 
46.9603 -29.2472 0 
13.7465 -55.2256 0 
-25.112 51.3707 0 
-32.6241 -18.6778 0 
-2.53229 14.1735 0 
-15.3901 24.9617 0 
-6.33681 -14.6287 0 
21.3888 13.499 0 
-7.28634 17.8124 0 
36.4653 -35.9525 0 
-27.4119 -50.4518 0 
21.7418 -53.4241 0 
46.0461 19.8492 0 
-18.0965 -54.3683 0 
-38.6966 -23.8706 0 
19.2602 57.2094 0 
12.921 -18.6276 0 
20.3794 40.031 0 
13.0378 -36.1121 0 
10.1679 12.8934 0 
-50.4827 33.2487 0 
6.54869 43.6326 0 
47.3667 -16.0824 0 
-44.9814 37.4409 0 
8.98408 -47.7627 0 
-11.5664 -36.8437 0 
-6.54205 46.8406 0 
-32.0375 7.21577 0 
-15.7286 47.883 0 
-8.07276 -16.2936 0 
0.980065 -45.3581 0 
-29.8748 46.0522 0 
39.4567 -25.0427 0 
5.33762 4.44445 0 
23.4231 -3.57334 0 
-19.7027 -25.7959 0 
-61.4187 -4.90863 0 
11.7617 -31.8728 0 
-44.4142 -21.5778 0 
-26.599 41.7214 0 
1.08288 29.7268 0 
17.225 26.5603 0 
-2.96303 53.9528 0 
20.1732 -38.0898 0 
-18.8705 23.4782 0 
-0.857713 -37.0879 0 
50.9253 10.6124 0 
-22.509 15.4835 0 
20.7939 58.0952 0 
43.5416 -1.75026 0 
-13.325 -23.6173 0 
-47.8173 -25.0262 0 
53.7268 -5.65551 0 
-43.0994 10.896 0 
-58.4557 21.0335 0 
-1.56534 19.5486 0 
-52.471 8.688 0 
18.6272 24.665 0 
-23.8772 23.5502 0 
-21.6757 -23.7832 0 
-38.2687 15.29 0 
-49.9984 21.5611 0 
-31.7624 44.453 0 
38.3682 -34.4974 0 
23.249 -4.06358 0 
-61.5863 0.958694 0 
-11.1391 -25.9792 0 
7.5642 39.8788 0 
-7.94739 -25.8685 0 
38.5752 -14.0879 0 
-19.9727 -43.2837 0 
-10.7766 -31.5443 0 
27.4875 20.5346 0 
23.3043 23.3103 0 
-34.8847 -33.4326 0 
-11.1695 -8.15538 0 
2.70177 -2.31885 0 
-33.9832 -3.3721 0 
-13.0237 38.5857 0 
0.949818 -53.4218 0 
42.6803 36.577 0 
33.7521 -27.2374 0 
18.4361 -22.9222 0 
33.1698 41.1458 0 
-38.5097 11.2229 0 
12.9845 -50.8855 0 
52.3226 -32.7511 0 
-26.2159 32.8241 0 
-57.8418 22.5316 0 
-23.2497 3.61616 0 
-13.922 50.3729 0 
32.9397 -13.7898 0 
-41.5215 -38.08 0 
-45.8443 -7.55976 0 
51.5349 9.68741 0 
45.4681 30.8743 0 
-0.304772 -59.6466 0 
59.0472 1.61014 0 
34.9263 -4.71625 0 
12.2257 54.1285 0 
-19.1245 -16.3025 0 
-26.3425 55.9628 0 
14.7248 56.19 0 
-16.5354 -53.3051 0 
55.1913 -14.3479 0 
30.3748 -19.4155 0 
44.2234 12.3867 0 
-48.2355 -12.6941 0 
23.3175 -2.01438 0 
32.9974 -19.6665 0 
-46.172 30.9965 0 
-58.7566 -7.68042 0 
-20.8352 3.68857 0 
-11.2467 54.0347 0 
24.4739 -38.0176 0 
-50.9128 -10.7371 0 
10.5681 9.2912 0 
8.38539 -55.6982 0 
-30.3435 50.9827 0 
-31.5375 44.453 0 
-38.9251 -9.2989 0 
-21.9743 24.515 0 
-12.3234 -24.7152 0 
3.72249 41.5641 0 
14.7414 49.2358 0 
58.5518 -20.0018 0 
-21.0289 -24.0997 0 
23.4748 -5.27203 0 
5.68947 41.8051 0 
-32.5721 27.6123 0 
-15.5343 -15.0049 0 
59.3896 0.640199 0 
-27.3959 -2.47077 0 
55.3961 14.4555 0 
-9.88014 -44.3272 0 
44.5961 -16.3051 0 
51.3022 -10.9205 0 
-47.5951 39.9312 0 
-17.513 -41.9041 0 
-16.9086 18.9312 0 
57.855 19.7038 0 
-10.7535 56.5764 0 
36.4966 -41.65 0 
-28.3392 -36.5471 0 
14.8352 49.1135 0 
-31.4109 -29.1826 0 
-1.42333 -8.63209 0 
-29.6895 -25.6418 0 
-45.5215 -2.34 0 
30.5056 -9.89387 0 
-27.2662 -48.3203 0 
51.5755 -35.1715 0 
-58.7633 -7.75504 0 
7.13526 -23.9176 0 
44.5329 -13.611 0 
-40.4376 -23.7758 0 
-31.7998 -12.1457 0 
59.5043 -10.9815 0 
22.0871 -45.0921 0 
-31.4599 -28.6946 0 
-23.7094 18.5779 0 
35.5592 -30.0948 0 
-1.83268 44.2006 0 
51.9503 -34.4654 0 
1.95571 56.377 0 
6.37689 -7.79447 0 
6.66306 32.27 0 
-6.58294 51.6684 0 
1.97932 -26.9376 0 
-24.0105 17.1053 0 
28.0316 53.7676 0 
-53.4401 2.48286 0 
-46.151 16.6733 0 
-41.9107 19.5226 0 
-9.55716 -16.6293 0 
25.4648 -32.3811 0 
-15.8597 13.7675 0 
1.3829 15.8888 0 
-42.8412 43.9717 0 
-17.1406 -41.1952 0 
-29.2823 34.1633 0 
17.2855 -16.6532 0 
7.39886 40.2355 0 
-35.0266 22.0809 0 
-54.2048 16.5218 0 
35.8532 -40.4894 0 
8.84924 50 0 
-45.4696 -2.74864 0 
-19.922 -54.1299 0 
-55.3416 2.67744 0 
3.78462 -1.21692 0 
-8.46317 -53.8566 0 
50.3088 16.6726 0 
17.5676 13.9079 0 
-50.3779 28.5992 0 
12.354 -54.3864 0 
24.9556 -46.6263 0 
54.1833 -4.10763 0 
-12.9088 30.3575 0 
-29.6098 34.8224 0 
9.18081 -14.5894 0 
-32.9889 -38.0594 0 
33.2795 49.7831 0 
35.5137 23.4663 0 
32.9261 14.5926 0 
22.9319 -22.1361 0 
-49.847 28.5606 0 
-29.8486 14.2669 0 
24.8854 50.0553 0 
-58.4465 -20.5623 0 
-22.8003 -28.138 0 
51.9685 19.1711 0 
-11.4441 10.1322 0 
54.4849 32.1593 0 
-49.0889 -18.9959 0 
46.9969 -24.8254 0 
43.3368 -11.2382 0 
-17.1694 13.5221 0 
26.2225 -21.9407 0 
-3.07414 16.0479 0 
18.7528 46.2235 0 
-18.5192 44.351 0 
13.9507 -23.8551 0 
-10.2916 57.6059 0 
47.9546 31.6538 0 
-63.8526 7.58493 0 
-2.41259 -16.3777 0 
-33.6679 44.702 0 
-46.1283 6.62272 0 
-11.8236 -24.9149 0 
44.2555 2.47414 0 
39.6352 42.7903 0 
-15.0317 17.0714 0 
10.517 -46.8013 0 
20.9059 19.7703 0 
17.6205 11.4589 0 
-28.1269 15.4852 0 
-13.6904 -0.436468 0 
0.142499 25.6609 0 
-17.4228 29.6173 0 
-16.5791 -4.89642 0 
1.87293 -17.6589 0 
-3.94594 0.669314 0 
19.6033 9.91736 0 
-42.4867 -32.2751 0 
-58.5932 -19.7124 0 
-6.5473 60.9743 0 
14.5055 -57.1778 0 
-19.7572 -26.9494 0 
4.27487 35.123 0 
22.3437 37.809 0 
-1.94535 54.0077 0 
46.4995 7.36802 0 
-2.19022 26.07 0 
-25.7514 24.5271 0 
-56.4179 -3.28884 0 
-34.2643 -21.5854 0 
-21.8918 -3.06897 0 
16.2097 -15.7466 0 
10.0751 -55.0347 0 
19.3083 -10.0359 0 
-28.0005 -48.7571 0 
3.82244 10.3255 0 
18.3352 48.8589 0 
17.7969 -46.4668 0 
-37.2309 -3.16699 0 
5.57219 11.8701 0 
-31.9016 -20.4666 0 
-3.64325 -52.5491 0 
-30.2882 -47.2001 0 
-1.03195 26.7878 0 
-47.2397 -13.1239 0 
-23.3106 -54.2125 0 
14.7921 35.0436 0 
-56.0831 -0.693791 0 
-30.2979 51.7298 0 
34.3367 -12.5304 0 
-1.41454 45.0966 0 
-30.7748 -43.5614 0 
42.4132 -1.24199 0 
44.1262 27.3206 0 
-38.9725 -6.60863 0 
27.3233 6.88764 0 
-39.4528 -45.7251 0 
-1.56812 40.3552 0 
-0.728964 59.669 0 
-46.6318 -30.9455 0 
0.250552 4.52057 0 
-4.01204 -30.8441 0 
-30.1284 -4.3789 0 
39.6571 14.6697 0 
-17.4223 -49.0279 0 
4.70342 18.7807 0 
-54.9363 -13.766 0 
29.9213 33.9809 0 
26.9107 -10.004 0 
-22.6025 -54.5386 0 
-5.02017 -57.4802 0 
-24.8441 42.9551 0 
39.5288 -43.2955 0 
7.57161 60.5207 0 
23.7191 -1.69581 0 
-12.2194 11.9902 0 
34.3329 -50.4919 0 
-28.9891 -15.1206 0 
-23.1333 -35.1292 0 
-21.4866 -14.4365 0 
-18.7397 -17.9816 0 
19.7316 -37.2357 0 
13.4027 -35.4565 0 
-8.16618 -16.2995 0 
54.7918 6.72658 0 
35.1487 -3.76977 0 
-22.5432 -35.4991 0 
[...]
<CellData Scalars="wall variable 0">
<DataArray type="Float64" Name="wall length" format="ascii">
2.17699 2.81974 2.43543 5.0871 0.909021 0.477689 3.31049 3.05811 0.216714 6.68634 6.66974 0.588204 4.99591 6.71386 4.77302 7.82775 2.10225 8.95107 0.825079 4.45584 0.428503 3.78908 3.39144 4.8383 5.2697 3.34967 0.964468 3.7218 2.13221 4.43756 4.8383 3.18588 4.19276 3.60547 3.17715 1.88144 2.96712 8.25207 0.964575 1.49913 1.23325 3.75586 3.76095 0.734675 6.7316 5.46148 1.92612 0.764166 2.78885 0.832279 0.557294 6.64234 1.73049 2.23426 0.628002 1.89737 5.18869 0.576376 0.67684 3.03964 1.29174 3.99705 3.235 3.47477 2.06747 0.737086 1.91647 0.291603 7.31958 2.35773 0.515389 1.52324 7.90424 3.58774 4.21939 0.928891 2.35043 1.5279 1.41198 2.20481 2.73159 6.68562 1.14313 1.75258 3.7218 3.03651 0.557294 0.948699 7.30663 1.76004 2.07187 0.417512 6.50855 2.21676 6.29002 2.77645 7.39762 0.0610154 3.95485 3.83002 6.03509 2.04485 0.791574 4.29657 5.57362 4.47725 0.612751 6.04045 5.55655 0.898785 6.04045 4.80268 1.85822 5.91415 1.11263 0.622771 5.59273 2.69412 0.692003 2.46616 8.25207 2.77645 0.872282 4.8336 1.44745 5.04919 5.66071 2.88785 2.26733 7.59945 0.387612 6.72557 3.35125 2.02306 0.957718 4.46589 0.329246 8.13328 1.76314 6.84668 4.51307 7.84474 3.24115 5.2158 5.1587 0.705399 4.29657 0.17395 4.83041 3.04465 4.5223 1.4525 12.8255 2.49306 3.99978 5.43189 2.61945 5.51018 3.34943 3.21141 1.59985 3.49655 1.77176 1.43297 5.52896 3.05787 0.673367 4.88307 4.17443 0.913517 4.60114 5.03471 2.77773 6.18782 2.70056 6.50855 1.8842 5.75986 3.07027 1.75569 4.83785 1.90022 3.17376 3.2644 0.582556 4.58059 4.89139 2.38433 7.40841 1.59389 0.367067 4.34388 3.98393 1.18683 0.884902 1.61862 3.03941 3.49866 3.12569 6.92872 1.41198 10.3852 0.357058 1.91394 0.176418 0.0427597 5.46485 2.3517 0.343797 1.90387 3.38969 2.861 2.73778 7.82011 2.71161 2.78872 2.06747 0.285806 1.72454 0.529896 0.972154 5.8383 1.31253 5.79575 3.70147 0.885935 8.2686 4.97043 0.312535 2.82888 8.43643 5.94272 3.56498 9.26499 0.939313 7.14078 2.76023 4.62163 2.8556 0.900035 1.18683 7.03769 0.936558 11.6726 0.406702 1.68925 0.638458 4.70588 7.27032 1.88271 0.996235 4.11894 1.19174 0.507844 4.35472 6.5571 1.35127 10.1009 2.12434 1.73131 7.12652 0.758972 4.10083 2.06268 0.996081 2.31009 1.83577 5.67506 0.928587 8.43643 1.86979 1.49632 10.1009 0.479479 6.80625 6.21362 1.9551 0.936558 1.37114 0.349629 8.07701 1.52327 4.20293 7.14148 1.66023 6.99911 0.136143 1.22246 1.95258 2.85316 4.34388 1.05852 8.89947 1.14313 0.390502 7.54156 1.40266 0.774068 0.891391 2.43543 7.75816 2.5937 4.1924 4.67103 1.64898 3.77552 2.9748 0.361414 0.683204 5.52368 5.72829 4.99772 5.67108 3.87928 4.63307 0.576376 8.98292 1.6222 1.941 7.39629 0.587255 7.83667 0.361414 3.08992 4.74299 3.29014 2.98491 5.8383 3.57026 0.831926 3.2247 0.871606 4.71379 0.994637 0.633765 1.15236 1.88994 3.09089 0.349629 0.562646 5.29674 0.470778 4.87308 1.89682 6.37096 0.842383 5.37617 3.5252 1.3555 2.78885 4.33628 6.25062 0.883634 5.94272 0.928587 1.35127 2.98662 1.45618 1.90483 5.45804 0.604606 8.36999 2.06128 3.84827 1.62911 4.71017 7.87739 2.02528 0.376934 7.75816 2.81974 6.12415 8.28095 2.18178 1.89737 1.46773 7.13414 5.65587 0.507844 6.24991 2.35773 2.20338 3.08937 3.21139 0.670702 7.94902 0.327602 6.71257 3.25918 1.00238 0.653458 2.49306 3.34491 1.81598 3.05504 9.30008 5.76806 0.870587 2.34264 2.69162 4.33027 1.30058 2.87644 5.91096 0.649718 4.7852 3.90913 0.762023 6.12415 0.628002 7.19338 2.61945 4.87755 3.65085 4.5961 2.07524 1.30529 0.899313 3.60829 4.04078 1.04578 2.62123 5.8821 0.575557 0.718841 1.63567 5.21833 0.434871 1.94303 2.51291 1.48619 5.67108 1.89564 5.63055 7.46072 4.04839 0.451154 0.701283 5.2697 4.43756 0.249823 4.8242 6.55102 2.03407 0.40987 0.913517 0.592992 6.13989 1.929 2.14376 9.26499 0.67684 7.39629 0.956124 3.51357 2.65393 3.35862 2.73159 3.44641 6.18137 5.8514 2.01743 2.16474 0.398982 5.98285 0.470778 4.07156 3.00169 2.65623 4.37581 0.766489 4.87435 5.79566 9.70626 0.546424 5.69548 2.28506 4.20377 3.58774 3.68688 2.53428 4.11984 1.61862 5.79825 0.983406 0.792013 4.90309 7.39762 5.66071 3.23525 3.47025 0.577228 1.9551 1.44927 2.76338 2.36211 2.77773 0.417512 1.30237 11.6726 1.47584 1.42997 1.07933 2.02581 0.662034 5.91161 2.19327 9.8465 2.36211 4.93413 0.928891 2.96925 6.18782 3.70158 2.23628 4.83041 1.78656 6.27137 3.38969 1.59795 8.92267 0.588994 8.78675 2.50409 5.91096 2.28414 1.95158 4.46604 0.319988 6.88367 1.91647 3.60362 7.08186 3.99712 1.22756 1.63025 1.64062 3.33208 1.1555 5.06739 0.252108 8.41803 5.33291 6.35476 0.683915 6.43946 3.07027 1.06828 0.876946 0.481962 3.71499 7.94181 2.3517 4.95134 0.977926 1.90253 3.68688 2.20481 5.8924 5.85896 2.29941 4.30839 0.977436 1.22246 9.2802 1.63032 1.72454 10.2636 0.875573 7.03769 3.98393 2.85316 2.26146 3.99712 1.62752 2.75537 5.16244 5.40463 2.86474 1.44745 5.52426 0.604353 2.18958 6.71257 1.94214 6.22257 2.88785 0.758222 7.08777 0.436701 0.0737487 1.38933 5.72829 3.28529 1.78656 0.17395 0.93685 5.78137 3.18588 4.6639 4.90309 7.09973 1.95068 7.09973 0.792013 8.78241 0.977436 1.51705 1.6222 0.89659 1.82007 6.68495 0.753841 6.87485 4.54227 2.21676 0.862335 4.49522 6.91269 2.76386 1.8721 1.89682 1.48386 9.55012 0.373566 1.90375 7.92054 0.588204 1.18367 6.67756 0.297456 5.69714 0.957718 2.81081 0.184123 9.23263 0.610074 1.27012 1.67903 7.08349 0.996235 1.42389 0.566159 4.84608 3.76296 2.75617 6.68059 4.0114 3.08296 3.19401 0.401179 7.06708 6.98041 1.76004 4.89448 2.42077 4.59938 4.47903 1.996 0.435059 1.3105 5.264 4.24788 2.29195 1.46103 4.2953 4.80845 2.68407 4.43099 1.13487 5.55655 0.898785 3.6643 2.06128 0.68941 3.21264 1.09767 1.30058 0.126122 0.312535 0.992502 3.69198 6.18003 1.1257 3.88732 6.79008 3.65085 2.91343 0.434871 0.166838 1.49136 3.68565 3.42865 3.85278 3.1375 6.19511 3.09721 4.20034 0.483896 1.76311 8.24404 3.03964 6.88367 2.36885 5.10218 7.13226 3.96772 0.871606 0.757495 3.43028 7.22478 6.88222 3.05811 2.70469 1.94214 0.997219 3.60362 0.737086 2.78872 5.2283 5.25879 2.27632 5.52896 0.377128 0.867842 5.80668 0.485659 4.53415 1.17167 1.16438 0.718887 4.77302 1.0527 0.191854 2.52517 2.25554 6.2692 3.92792 4.24788 0.58507 2.05642 0.766489 1.88395 1.46445 2.11563 1.74435 7.08344 0.964575 2.46616 8.67743 0.806865 1.66773 5.45005 0.681591 6.1987 4.66554 7.49605 0.373566 1.8141 0.393528 3.40778 6.18137 0.956124 1.941 1.51705 4.30839 0.96996 0.431796 6.78007 3.6232 0.976608 1.3058 5.10218 7.1111 4.42392 3.2644 2.63087 6.15727 0.673367 3.89176 3.90913 1.74096 3.03941 4.11984 4.6639 5.15997 0.825606 4.01096 1.6404 7.87739 2.17699 6.88222 1.92612 3.37648 0.479479 5.43999 1.38799 10.6713 4.2953 6.03868 4.47903 3.92792 0.372817 0.340595 3.83002 0.705399 2.9409 2.10225 2.7898 8.75447 0.423065 0.764166 10.6713 1.71147 3.37309 1.72867 4.33628 6.85162 4.66554 2.41917 3.16656 1.42997 0.724839 0.681591 5.2366 0.630261 1.32939 4.32671 3.13651 4.61543 3.7897 4.89139 3.88631 1.81247 3.18507 6.86442 7.43743 0.938852 3.24077 1.38254 1.35027 6.00629 3.67088 0.695909 4.77861 1.05852 2.41399 6.82878 0.725842 0.766691 5.77067 1.40705 2.12141 1.01752 1.10083 3.23525 5.04919 2.86474 0.327602 9.43071 7.13858 8.44092 0.166838 5.21833 3.09152 3.04357 1.35027 0.891391 2.91764 0.416339 4.74673 0.649718 4.72555 3.74594 3.30742 3.68409 5.04578 6.15727 1.63782 0.184123 1.88271 6.15527 4.88307 3.90303 5.5827 2.52352 2.07277 6.13989 1.6008 4.76748 0.383377 3.45481 3.6232 1.69581 2.04485 3.47477 8.32344 2.26146 1.95258 10.2636 0.285806 3.84889 3.26842 9.8465 0.408824 1.85822 2.46729 2.73837 2.18021 2.80281 4.01096 3.84213 0.428928 5.85896 5.13434 5.80668 10.121 3.6804 4.74673 3.74621 1.03078 2.22968 4.33442 5.86675 0.203533 6.08268 1.37857 1.22756 5.40463 1.15618 4.761 0.268696 4.51307 2.94795 5.62715 1.24353 0.497712 1.22621 1.78062 8.66194 1.56086 10.1301 0.278382 0.132452 1.14509 9.95368 0.829383 3.17605 10.8781 4.71379 3.15615 0.938852 2.51291 2.29019 3.99978 0.653458 2.70215 5.91675 3.35862 6.23243 2.94717 0.390502 6.68562 1.3058 1.06646 6.20238 1.03427 3.68474 7.13226 3.74031 1.17167 3.92926 1.63025 2.94795 6.84668 0.493152 1.08358 7.06708 0.668018 1.78062 2.76198 3.59199 0.398982 2.28341 6.90089 0.155307 0.170162 3.37174 0.393528 4.85754 1.74952 4.83356 2.29195 5.2953 5.94896 4.58015 0.735833 3.50931 2.33449 4.0346 3.99705 2.861 8.78675 0.684195 5.91411 1.38254 2.35637 4.16674 2.45356 5.64376 0.769809 1.2285 5.72319 1.23436 3.37309 4.89067 3.04465 2.23628 2.94519 0.747388 6.78956 4.79875 7.14436 1.73131 0.174761 1.56086 6.47352 0.661751 0.479119 3.86975 2.69162 2.50409 4.91269 0.285082 2.03994 5.24032 1.90129 3.09152 3.6804 2.4595 2.62123 8.7279 0.566159 1.25141 0.387612 2.43398 3.05504 4.77861 2.53777 0.249823 2.13221 1.75258 8.89947 2.47907 5.94896 1.91236 0.610074 2.46063 1.90022 3.7897 1.22915 3.70474 7.6288 0.493152 4.37581 1.52364 0.291603 3.34943 5.28599 4.04839 0.593968 3.34491 3.04357 1.90129 0.792652 1.83577 2.59519 6.00629 0.870587 5.9388 1.2285 3.31645 2.64543 4.96563 2.33857 5.838 2.91764 0.774068 4.93109 0.995162 1.48619 5.91675 2.09378 1.52327 2.90565 3.87928 2.96978 6.76954 4.52461 2.07524 2.42693 1.46445 0.415385 7.89946 3.68565 4.06144 7.84474 0.268696 3.2644 5.79897 0.966159 2.35322 8.01494 4.761 5.94284 6.63654 2.68407 1.34563 0.415385 3.62135 7.35226 2.80233 7.0896 0.196527 0.604606 7.2221 2.02581 3.04472 1.22588 6.68634 0.241727 3.77552 1.38933 1.88144 2.34789 2.45356 7.15488 8.92267 2.58095 1.03693 1.7261 8.16998 6.1987 4.61543 4.17281 3.24067 2.41917 1.69581 7.1111 3.43028 5.49366 3.24115 0.791574 0.938681 1.06828 5.75986 1.02628 3.73581 7.35226 3.76191 4.23381 3.05787 2.27632 1.21949 0.104272 1.03427 3.22144 7.13043 1.51388 1.59726 3.74594 4.32104 1.63782 2.63087 3.17376 2.46063 9.23263 4.93109 1.40266 4.32613 6.79706 2.1027 2.69412 6.00294 1.31433 0.883934 0.0427597 11.1417 1.31433 7.43125 0.622771 3.83694 0.977926 6.15857 5.03097 5.48381 2.93136 3.47025 1.10083 1.71147 1.38799 1.53565 2.6684 4.5223 4.89067 4.5709 2.76198 1.22621 3.8466 1.48908 4.49522 7.19338 2.23426 1.16484 4.32104 4.72555 1.68841 6.25062 1.72867 2.94519 3.70158 4.61713 2.98662 0.758972 5.4764 3.70002 6.46643 2.47191 7.82011 1.90554 0.562646 7.14148 0.833422 3.12569 2.60245 1.82249 2.52296 0.279477 1.70867 1.47025 5.11458 3.7628 1.91394 3.33515 0.966159 3.3543 0.842383 3.99508 3.84213 0.825606 7.22478 0.0737487 8.93063 0.779881 0.483653 0.431796 7.24853 1.09361 3.17605 7.43743 2.57734 6.0807 1.95196 2.38433 0.900035 3.18832 1.26261 1.32939 1.98903 2.52517 3.11397 2.82029 5.23036 0.93685 12.8255 0.232534 3.86701 9.95368 0.377968 2.9409 5.1587 4.97589 0.831926 1.54546 8.95107 5.69714 5.96716 1.32939 1.03467 4.46589 1.03467 6.1894 4.62163 1.99462 2.33449 1.5577 0.329246 1.13487 7.06666 2.47672 2.28925 5.57362 3.11406 8.67743 0.692003 2.1027 0.506998 6.91269 1.48908 2.43398 7.59945 2.99934 0.477689 1.35656 9.30008 3.63821 3.90033 3.67175 3.76191 6.20238 2.07277 7.16223 0.428503 4.05424 4.37038 1.929 3.92069 5.11458 2.24534 1.16497 3.31884 0.400463 3.19401 1.01614 6.0353 0.779881 6.86442 5.91411 1.32939 5.66946 3.18832 2.8556 6.1894 4.71017 7.26629 0.662034 7.2221 0.983406 0.536604 1.52324 3.48449 2.18021 5.8924 8.78241 3.04472 1.07933 3.16656 3.24067 4.21643 1.18367 8.11007 2.34789 3.17715 2.15491 6.68072 5.64376 1.16196 6.42549 4.5237 1.95158 4.57416 4.20377 0.475347 0.885935 0.105471 0.948699 2.70056 2.96925 4.21939 1.45618 6.46643 3.84638 0.837367 2.60664 1.85027 4.35472 5.65587 2.81395 1.03077 5.5827 1.56768 5.68964 1.82249 2.6205 3.68409 5.48348 5.29102 3.88732 4.64916 2.46729 4.80268 0.612751 0.246287 3.95826 1.72026 2.2613 2.77504 5.92177 7.78348 1.7899 4.51319 4.0114 1.08358 7.6288 0.578752 2.58095 1.59795 1.90387 1.4322 4.23758 8.04979 5.35073 6.5101 3.21264 3.18789 0.601486 7.78348 4.2428 0.824272 1.90375 7.49605 3.44641 3.60214 6.61541 2.26821 0.939313 2.14376 4.37038 3.235 4.0346 1.99462 2.76023 0.875573 8.32344 3.53976 2.2613 4.44839 0.278382 2.45706 6.42549 6.00294 5.59273 7.43125 1.00238 9.54881 1.4322 0.343797 2.47191 4.20293 2.09378 2.70215 2.6684 4.21367 4.70588 3.74315 1.38604 0.232534 1.4525 0.506998 11.1417 0.176418 3.7628 6.51868 2.76386 0.53952 7.4294 3.08937 4.08744 3.00169 2.03407 5.88394 0.203533 1.5666 2.05558 4.31155 2.41399 2.26506 3.9468 0.735833 5.8616 1.3842 6.90089 2.52352 1.03077 2.20856 2.7898 3.78908 7.16223 2.63177 3.33208 2.72606 3.24293 4.76748 3.6643 5.91415 0.408824 2.19327 3.76684 3.84827 2.82888 6.79008 5.29102 1.78781 1.86979 0.136143 4.3398 1.02628 1.8842 3.74647 9.2802 1.35554 4.58313 4.02686 0.899313 2.64518 2.64543 2.43998 1.11421 6.9463 0.881521 5.52426 4.8336 3.76296 3.76328 1.56879 3.11397 0.191854 7.68132 2.28925 4.40795 0.747388 2.12434 1.49632 1.78781 0.246287 4.47725 3.69392 6.20446 4.11894 7.08349 0.824272 2.24968 5.27359 4.99591 7.92054 3.69198 3.5595 7.07329 0.170162 11.0484 2.89944 6.76643 3.29014 2.61213 2.5937 0.376934 0.989457 0.670702 0.349361 1.80339 3.95826 0.601486 2.16474 1.07895 1.37526 6.19511 1.12534 3.35125 0.628569 4.85754 1.8141 9.55012 2.27986 5.67506 0.792652 5.24032 3.57229 3.59199 4.5709 0.862335 4.87308 5.98285 3.49655 1.82187 3.60829 4.02686 1.99712 5.30063 0.319988 0.248546 10.121 0.867842 0.865573 10.6883 2.36885 1.05865 2.60664 1.77731 4.59938 3.12156 8.22623 0.248546 7.08186 0.997219 3.97287 0.485659 5.13434 0.695909 6.70124 0.889636 1.37857 0.964193 4.8242 2.53777 3.60547 0.922495 4.92859 0.349361 3.1375 1.39582 2.15491 1.24089 3.82005 2.76063 0.623279 3.53211 0.608508 9.16335 2.11631 1.16438 3.74031 1.76314 4.06144 1.49136 8.44092 5.04578 2.6205 2.60245 3.49866 1.74096 4.7852 0.34685 5.8616 4.58015 1.29174 8.24404 2.35322 3.33515 0.357058 3.21349 0.629931 6.7316 2.94863 1.57485 9.43071 1.81598 0.593968 7.46072 1.62927 1.24089 1.1257 2.7974 3.44532 5.67698 2.73837 4.64916 4.07156 5.37617 3.3543 5.79897 0.580413 0.53952 4.61713 6.27137 3.28529 5.52368 1.12722 1.15618 5.16244 0.578541 3.69392 1.67903 1.44893 5.94284 0.628569 8.13328 1.5577 3.50931 3.9468 2.28341 0.829383 3.86701 1.38604 4.33471 0.860218 6.47352 0.369097 6.92872 0.833422 3.92069 3.08296 4.51319 4.97807 3.01799 3.97392 1.99712 4.58313 0.310994 8.23332 1.15236 2.51587 6.68059 1.04578 0.286039 2.55607 3.76328 4.84608 8.7279 3.97287 5.25879 2.8883 1.21949 4.53415 5.92177 9.86027 1.82298 2.24968 4.2428 5.2953 4.43099 6.63654 1.44893 1.27012 1.91236 4.25085 0.132452 4.44839 1.72026 1.80339 4.92859 1.37526 6.35268 0.808133 0.0898999 3.01799 2.28644 3.09721 0.546424 8.16521 4.00148 1.55185 5.33291 0.733147 2.81448 5.48348 3.30742 1.59726 7.0659 0.860218 7.63743 0.703229 3.3916 4.79875 0.853618 0.661751 3.96772 3.68474 0.104272 2.8883 5.2283 2.71161 2.98491 2.05642 7.52357 0.704646 0.731718 4.05831 1.44062 4.87435 3.09089 0.981264 4.63307 2.90565 8.07701 4.21643 4.17281 3.13651 0.336724 6.67756 5.43189 2.29019 1.94303 2.91343 4.87755 4.54227 0.943442 1.31909 1.03078 3.2797 0.272006 1.11421 0.872282 6.29002 4.33471 3.74315 0.638458 1.03381 7.63743 1.35656 0.909021 0.0960129 5.72319 5.9388 5.76806 1.62911 3.76684 5.91161 7.26629 0.837367 10.1885 0.406702 1.30237 2.07187 6.98041 1.77731 3.93254 1.91133 1.44418 3.82005 1.62927 5.63055 1.53565 5.43999 1.37114 7.27032 4.21367 3.92926 6.2692 4.34664 2.72606 1.64062 1.18623 5.49472 5.69548 0.733147 8.41803 0.297456 0.336724 4.32671 1.26261 5.66946 5.96716 3.67175 0.837812 0.862551 3.15223 3.21141 4.23381 2.41019 4.91269 2.22968 1.31909 7.90787 0.758222 6.72557 1.25141 1.42389 2.51587 0.633765 4.88156 3.45481 5.49654 1.81894 3.63821 1.06646 0.976608 0.634356 8.2686 0.475347 2.28506 5.49472 2.64316 2.55607 7.32644 0.862551 3.59797 2.82029 1.56879 0.174761 4.46604 4.5237 2.45706 10.1301 4.74299 5.0113 0.618647 4.1924 2.61213 3.71499 3.62917 5.25196 2.01689 6.61541 0.837205 2.77504 3.53976 1.16196 1.6669 5.35073 2.1956 9.86027 1.17678 9.08126 0.832279 1.3555 3.20725 0.587255 6.76643 1.09361 0.748514 7.08777 4.88156 0.994637 10.8781 2.47672 3.62353 0.479119 0.853618 6.78956 4.40795 0.126122 4.33027 3.86975 3.62353 7.06666 5.02922 8.04979 2.24397 0.604353 0.881521 4.91485 0.656939 0.647674 5.55542 0.724839 1.47584 3.26842 6.72335 1.17487 8.75447 2.20856 2.81395 7.13414 0.676704 2.24211 11.0484 0.155307 1.3842 0.34685 1.76311 10.6883 0.286039 4.04078 1.82187 1.59985 3.15223 7.32644 5.94419 3.93254 1.89564 0.86348 6.76954 0.428928 8.93063 0.436701 0.748514 7.24853 0.96996 2.29941 1.43297 8.35816 0.808133 0.639943 3.69198 2.24211 0.865573 0.377128 1.07895 2.01743 3.52066 3.5595 0.639943 6.35268 1.64898 4.39782 4.44763 1.23436 0.0960129 5.0871 5.46485 0.883934 6.15857 4.95134 3.57026 0.972154 6.63549 1.75569 6.43946 0.796249 0.825079 1.54546 0.708204 1.40705 4.6194 0.664001 2.30926 7.13043 3.5663 0.876946 0.938681 3.62135 0.466899 4.37439 7.49507 0.684195 0.588994 8.16998 2.81598 6.23243 2.65393 0.893193 1.01614 3.25918 2.18958 2.24397 4.23758 9.54881 3.03651 0.964468 3.39144 2.84056 2.93212 6.64234 0.996081 8.20495 0.305619 3.7709 4.33442 0.889636 2.50348 5.264 0.911398 6.09856 7.52357 0.58507 6.51868 3.99508 6.37096 1.8721 6.15527 6.5571 1.56768 3.90303 0.592992 4.17443 6.66974 1.22588 8.11007 2.81081 2.02306 1.12534 1.48386 1.44062 8.56114 2.76063 1.44418 1.08004 5.79566 3.08992 2.9748 0.241727 2.10606 3.41254 5.0113 2.10606 7.15488 4.16674 4.44763 3.60868 2.64518 5.8821 2.4595 2.34264 4.96563 6.55102 0.964193 6.08268 5.88394 2.95912 7.82775 0.718887 2.11631 7.13858 1.63567 0.423065 1.17487 5.81821 1.1555 2.63177 1.6008 6.03509 2.70469 3.31049 2.99934 2.26733 6.22257 1.88395 9.70626 1.08004 1.91133 5.94419 2.96978 3.67088 2.59519 2.31009 2.50348 6.70124 4.5961 3.85278 4.52386 0.372817 2.11563 2.42693 2.84056 3.34967 0.701283 2.26506 2.12141 0.708204 6.38086 5.18869 2.18178 1.69272 0.89659 8.98292 4.20034 2.28644 4.97807 1.35554 7.07201 2.75617 7.68132 1.0527 6.71386 2.95912 0.718841 1.6459 0.310994 1.62752 5.06739 5.81821 0.676704 1.46773 3.93119 2.37418 7.90787 0.943442 6.87485 1.20743 2.53428 1.90253 3.83694 1.11263 2.96712 0.46615 8.16521 2.24439 4.32613 7.54156 2.94717 2.81598 1.7261 0.483896 7.07201 2.43998 3.31645 0.769809 6.68072 1.39582 2.00769 2.80233 3.73581 4.3398 6.99911 1.77176 5.30063 3.97392 0.0898999 8.35816 3.37648 5.46148 0.629931 0.412528 1.88028 6.80625 1.44927 6.21362 1.88028 4.66351 6.77726 0.796249 7.94181 0.837205 3.60214 4.05424 4.45584 1.6459 0.575557 4.99772 0.981264 1.88994 8.23332 2.47907 5.47528 4.04493 0.435059 3.6994 1.74952 0.216714 5.27359 1.82298 2.1956 3.18789 0.68941 8.36999 0.196527 4.67103 0.618647 3.41254 3.60868 4.39782 0.580413 3.2644 1.4409 1.17678 2.89944 3.21139 7.4294 3.15615 5.29674 1.90554 2.73778 2.35637 3.24077 0.272006 2.97968 2.33857 1.92234 4.91485 6.9463 7.14436 3.3916 0.906699 5.4764 7.12652 5.49366 0.757495 3.2247 4.97589 5.2158 1.6669 4.57416 2.28414 2.87644 1.09767 6.5101 1.4409 8.01494 2.94863 0.734675 9.08126 0.750848 5.23036 3.59797 0.837812 3.90033 1.81894 1.34563 4.80845 0.340595 4.52386 3.42865 7.89946 2.76338 6.77726 1.92757 2.35043 4.93413 0.995162 6.79706 2.24439 1.03693 0.578752 5.02922 1.92234 3.51357 6.78007 0.483653 6.0353 0.893193 2.93212 6.38086 3.5663 3.22144 1.16484 1.73049 3.52066 5.8514 3.40778 3.37174 7.07329 3.84638 3.70002 0.906699 0.703229 1.03381 1.68925 10.1885 3.93119 6.24991 1.19174 6.20446 0.578541 2.75537 0.515389 7.94902 0.989457 2.02528 1.6404 2.80281 3.48449 3.74647 4.83785 6.63549 0.529896 1.63032 0.383377 3.24293 4.34664 2.25554 1.98903 0.750848 5.49654 0.536604 5.79825 0.884902 0.369097 1.7899 3.70474 7.90424 1.46103 4.83356 3.6994 1.996 6.03868 5.51018 1.30529 4.52461 0.86348 0.451154 5.28599 2.97968 3.2797 3.74621 0.416339 5.838 1.52364 2.65623 4.08744 2.20338 7.31958 5.78137 0.377968 1.14509 4.25085 0.922495 4.19276 0.105471 3.70147 1.73373 4.89448 7.30663 1.5279 1.92757 4.66351 0.412528 3.21349 10.3852 0.497712 8.78025 2.59383 1.74435 3.11406 3.8466 3.20725 3.5252 1.68841 1.12722 0.683204 7.83667 0.762023 5.15997 1.95068 1.82007 1.69272 8.28095 
</DataArray>
<DataArray type="Float64" Name="wall variable 0" format="ascii">