<VTKFile type="UnstructuredGrid" version="0.1">
<UnstructuredGrid>
<Piece  NumberOfPoints="    3342" NumberOfCells="    2461">
<Points>
<DataArray type="Float64" NumberOfComponents="3" format="ascii">
-40.1079 -31.081 0 
6.01683 6.72432 0 
32.8601 -3.86991 0 
0.915317 -41.1009 0 
-17.5783 31.7137 0 
-44.2475 17.0755 0 
4.77799 -28.7207 0 
14.2157 -53.6083 0 
-34.5455 43.2619 0 
50.1806 -17.8816 0 
-41.6762 9.45045 0 
30.4719 -14.8313 0 
-8.9663 26.6942 0 
4.42624 -42.3189 0 
45.41 16.7021 0 
-6.99939 -27.1457 0 
-1.55342 -56.9957 0 
54.2979 5.45858 0 
-18.8189 -25.7672 0 
20.1661 -13.1472 0 
35.4387 50.8234 0 
28.8017 34.0717 0 
-33.4323 -27.854 0 
3.53092 1.00881 0 
-24.5148 48.0911 0 
36.3175 -6.48675 0 
-21.7375 -39.6157 0 
-18.1373 -36.257 0 
-37.2244 9.91534 0 
-42.2711 -8.8476 0 
47.5329 36.8207 0 
29.5313 15.0371 0 
-31.5953 52.8767 0 
-22.1119 41.8812 0 
-8.92618 58.7089 0 
-12.5996 57.3509 0 
-9.67906 23.5146 0 
-5.90888 33.5676 0 
23.1619 37.371 0 
-5.95975 -44.1946 0 
35.866 47.3656 0 
-14.9662 -53.4333 0 
25.5199 -41.9098 0 
-28.5876 44.5807 0 
-61.6122 -1.13691 0 
44.0128 -13.7618 0 
-8.44635 -1.05993 0 
-18.1305 22.47 0 
4.36298 14.8784 0 
-3.65629 -28.2664 0 
28.0771 -23.522 0 
16.6149 49.4509 0 
-16.281 -6.38107 0 
27.6084 -52.5353 0 
-16.8016 -16.0895 0 
-29.1695 4.29831 0 
-6.26188 -34.7067 0 
49.3034 27.3452 0 
-4.85936 54.119 0 
11.4197 35.7784 0 
-17.7206 22.4861 0 
-10.5604 -61.116 0 
32.9739 -32.7946 0 
26.4991 -17.3403 0 
-40.4561 21.7359 0 
5.7854 38.199 0 
16.9078 20.9118 0 
-43.9989 -18.7456 0 
-50.0888 -30.3868 0 
8.59872 56.6467 0 
9.92349 -2.81697 0 
-36.3385 -26.736 0 
29.0087 40.7825 0 
-21.0644 48.5337 0 
-12.2481 56.8259 0 
-31.6248 -13.0701 0 
15.6441 -17.9432 0 
-29.7679 30.8493 0 
17.1837 -30.9903 0 
0.579001 51.701 0 
-48.3872 -4.79643 0 
21.4794 -25.73 0 
-7.28696 -7.47213 0 
32.5982 45.881 0 
36.6094 18.641 0 
56.5211 -6.38333 0 
-46.7388 -10.7354 0 
-0.747815 38.9111 0 
26.2658 53.5952 0 
-27.3536 40.162 0 
1.51991 -33.1446 0 
-19.5352 -19.3866 0 
16.8565 21.8478 0 
-46.376 -24.1251 0 
21.0337 -26.2516 0 
25.9992 -47.3236 0 
20.1684 -1.64002 0 
-13.9285 27.2728 0 
-11.7131 50.4285 0 
8.3529 -24.4377 0 
-17.6277 -53.8833 0 
-34.881 15.0078 0 
33.9772 9.15071 0 
-44.1668 4.80609 0 
43.0217 -12.8369 0 
-9.50899 -1.20425 0 
-42.9271 -3.32687 0 
20.7485 -1.96239 0 
-52.2755 22.0344 0 
-36.1151 5.93716 0 
53.3289 14.2864 0 
-11.9995 8.80917 0 
-19.8856 -35.599 0 
-61.8649 5.57256 0 
32.1352 -12.9691 0 
52.1466 3.05937 0 
-21.9634 -19.5488 0 
29.3698 48.0696 0 
34.0442 -36.632 0 
26.76 -3.39898 0 
21.4704 55.9468 0 
-18.2813 55.4078 0 
-3.73341 57.4772 0 
28.3697 48.5647 0 
-22.5609 54.4551 0 
-28.7365 32.8289 0 
7.52732 -58.6417 0 
30.9146 -27.6509 0 
21.4624 39.3 0 
57.4897 0.0573379 0 
5.92884 49.5673 0 
-15.1459 -1.86978 0 
-30.7046 -23.012 0 
-9.05987 -12.0483 0 
46.6895 27.3139 0 
-51.6024 -18.5817 0 
23.1434 -3.83473 0 
9.01693 55.7942 0 
-33.4815 -5.19004 0 
-20.3058 -56.0641 0 
-54.9469 -23.297 0 
14.9899 50.7212 0 
53.9926 -23.308 0 
-3.8122 10.6708 0 
35.0551 32.3143 0 
2.59269 22.359 0 
-26.8854 -53.6674 0 
16.1536 53.9222 0 
29.4843 15.5326 0 
9.20919 29.0731 0 
-46.6625 16.4503 0 
-45.0659 41.2674 0 
43.4014 23.1589 0 
33.0569 -45.264 0 
1.2907 50.9753 0 
45.5885 38.6149 0 
6.41229 14.1654 0 
13.6986 8.65836 0 
47.7768 -37.9745 0 
-2.38895 -50.2184 0 
-57.1498 4.35641 0 
-9.81378 -10.2207 0 
33.9707 42.214 0 
-31.9694 26.1132 0 
-38.7328 -22.2404 0 
-58.9495 19.3866 0 
-26.0747 -54.1143 0 
-50.8891 -27.0743 0 
-33.2708 51.9112 0 
-12.0834 -17.7558 0 
38.2305 14.9268 0 
-11.3672 37.8976 0 
-24.8021 10.49 0 
36.2645 9.8305 0 
10.7227 51.8967 0 
-20.399 27.887 0 
-9.562 18.052 0 
-49.9816 -30.7486 0 
16.9946 20.6211 0 
9.80227 -5.46002 0 
38.9064 28.2886 0 
-28.4589 -14.2632 0 
-32.0753 15.4964 0 
-2.47238 -35.1169 0 
-30.3676 34.8407 0 
32.2988 -19.004 0 
34.2956 -28.2377 0 
7.36587 20.4437 0 
-24.4689 33.8546 0 
-19.0266 -8.42727 0 
44.5867 -39.9439 0 
30.9766 53.5689 0 
51.3885 -26.2775 0 
-15.2128 -48.4832 0 
39.1627 27.0353 0 
-57.144 -0.592919 0 
29.1929 24.9517 0 
-13.2202 7.99586 0 
37.7255 -13.4838 0 
-37.3954 30.619 0 
31.6207 -17.4789 0 
-47.2826 28.7654 0 
-10.8168 8.063 0 
-15.238 31.9554 0 
-8.67694 -21.1075 0 
-17.549 55.93 0 
35.2087 51.1094 0 
43.3735 -40.3306 0 
-1.45542 -3.76744 0 
50.6573 -33.8745 0 
15.0948 -39.3238 0 
-8.67803 -61.7423 0 
32.415 24.7561 0 
0.309778 33.1947 0 
-20.6651 48.5905 0 
-15.367 -32.0095 0 
40.8892 -23.8788 0 
49.173 26.0622 0 
11.8607 43.6692 0 
52.1868 -10.3966 0 
-10.1707 13.3728 0 
-17.9916 2.46491 0 
25.7365 -33.1046 0 
-50.3828 -19.7715 0 
8.8001 17.9685 0 
-55.9874 -9.90415 0 
-44.9969 -38.343 0 
-2.60235 35.5756 0 
29.8613 -22.4124 0 
27.6102 -29.4733 0 
-36.7151 -16.7551 0 
10.9688 -1.68336 0 
-44.9071 2.19979 0 
-24.6575 51.5883 0 
2.20751 58.4613 0 
13.8537 -26.6914 0 
-33.2207 -7.66545 0 
-6.80805 4.1456 0 
-16.7615 7.69611 0 
13.0254 58.325 0 
20.4406 -38.0769 0 
-5.86833 -43.7987 0 
-20.2791 35.2748 0 
-26.5957 -1.2452 0 
15.0759 -7.90326 0 
3.44884 57.5078 0 
1.74602 9.47081 0 
-3.0916 -14.7335 0 
-49.2541 30.5557 0 
48.9741 4.01366 0 
47.6599 -4.19246 0 
32.5283 27.0702 0 
-25.9272 55.7538 0 
54.7522 11.4968 0 
4.73435 -13.6695 0 
25.983 -25.9731 0 
-19.2974 -4.46519 0 
7.08315 -21.7602 0 
18.4202 -2.17518 0 
10.3875 -34.2264 0 
-44.8416 38.2071 0 
23.7975 -50.1013 0 
-18.1466 10.8795 0 
28.6459 -22.8051 0 
9.11393 -47.8266 0 
-35.8442 -45.8236 0 
-50.632 5.82155 0 
0.641205 29.3523 0 
-36.4406 47.2085 0 
35.358 22.5844 0 
-46.8788 -17.388 0 
22.8672 31.8035 0 
-15.9723 -26.1649 0 
-42.784 -29.8044 0 
7.65004 44.8706 0 
14.0738 -46.4744 0 
-12.0294 50.0406 0 
-17.0594 13.638 0 
-13.1283 -27.8697 0 
-57.8515 15.599 0 
54.8583 -6.97015 0 
-23.9922 -0.246165 0 
-48.171 -23.7564 0 
25.3353 22.218 0 
18.2139 -51.1418 0 
-38.3911 20.3841 0 
-37.5974 9.92437 0 
17.1999 -42.7929 0 
50.1213 -18.654 0 
27.0631 4.02943 0 
-20.3955 -8.03883 0 
-51.3339 -2.37962 0 
-2.42463 11.3522 0 
-35.6297 -16.7408 0 
44.2437 14.0508 0 
28.2848 -5.84813 0 
22.1441 48.1178 0 
-1.77304 17.5369 0 
-39.2876 -12.552 0 
-3.36794 -19.2082 0 
43.5539 -1.91497 0 
58.0613 -14.0456 0 
36.1835 -8.58279 0 
-4.30488 29.8817 0 
2.72793 28.1021 0 
-45.8886 36.0628 0 
-27.464 40.6217 0 
-40.5343 31.3518 0 
22.6974 14.6862 0 
14.1698 16.6648 0 
-54.5294 12.3354 0 
53.4359 20.1802 0 
-45.8892 -40.1693 0 
-27.5248 -23.4679 0 
-48.3183 8.59104 0 
48.4196 -8.02204 0 
6.29689 -50.8228 0 
-13.7274 41.5815 0 
-52.072 -12.554 0 
39.0308 -35.5584 0 
-38.6017 -41.1347 0 
-10.1818 51.5339 0 
-44.8615 26.999 0 
-55.6575 16.5287 0 
43.9263 41.6532 0 
-44.6157 -27.4152 0 
12.0273 -59.9167 0 
-36.8567 -37.6702 0 
48.5879 -24.8921 0 
-15.9017 -0.700781 0 
10.7355 -6.66573 0 
-46.6231 -33.9926 0 
14.5083 -59.7881 0 
39.2619 5.36837 0 
48.3922 18.1868 0 
-16.7667 56.6859 0 
42.6176 -37.2904 0 
-28.9157 17.9177 0 
-26.0162 -3.47986 0 
22.2787 -34.9567 0 
22.7032 -57.0417 0 
-38.3506 37.672 0 
13.6622 -24.5654 0 
45.2808 16.4444 0 
-31.2231 -30.5317 0 
-11.2213 34.4531 0 
-1.51251 11.0897 0 
-33.8296 -4.14331 0 
-6.68547 3.43199 0 
-11.976 -30.6195 0 
60.6524 9.53927 0 
-8.30343 -21.2572 0 
51.3729 -28.6669 0 
-31.3318 -38.8565 0 
-37.9155 30.0978 0 
-12.6869 21.333 0 
-25.5962 14.1626 0 
44.2439 31.2155 0 
-50.9479 22.0146 0 
-22.94 27.2282 0 
15.5326 -53.3218 0 
-36.4048 40.613 0 
-26.8933 23.466 0 
-34.7341 33.5806 0 
-22.9441 -26.89 0 
-29.3223 -29.5209 0 
-57.7249 -12.7208 0 
27.4552 17.0305 0 
30.7983 10.9493 0 
-0.168127 -0.476139 0 
54.8712 -22.3212 0 
-11.8374 -29.1987 0 
-37.2972 -0.410987 0 
12.4524 32.6523 0 
2.09579 -11.5684 0 
-17.6825 -57.8387 0 
19.2676 -21.9791 0 
0.164544 -21.126 0 
-7.40014 6.45279 0 
-24.3944 -44.358 0 
-35.7955 4.87421 0 
-15.8579 14.8913 0 
58.3608 -9.07177 0 
39.8462 -45.253 0 
-40.1729 21.5554 0 
-5.71371 -55.7491 0 
37.2819 38.2188 0 
-25.7091 -48.699 0 
-5.51541 19.76 0 
24.1246 43.367 0 
18.4463 -57.8846 0 
-4.10755 2.62755 0 
11.3782 -39.1346 0 
61.3415 4.64985 0 
42.7752 -28.2686 0 
-22.468 0.9993 0 
-28.7067 -14.6284 0 
42.8385 35.4926 0 
-49.4123 -8.81146 0 
-2.92911 44.1254 0 
21.8793 -15.4753 0 
-50.9181 29.1334 0 
26.8818 -12.1481 0 
-13.5639 -43.8951 0 
-32.512 27.2392 0 
-28.6257 -0.053693 0 
-10.0376 -40.8035 0 
-13.6793 7.9472 0 
19.0915 49.0099 0 
6.606 13.1966 0 
4.23567 37.8254 0 
-48.0049 21.5816 0 
16.7318 10.8973 0 
49.8528 -35.1583 0 
-20.7456 -29.9921 0 
-6.00314 -61.8689 0 
-21.8351 -51.3133 0 
-59.5559 8.44997 0 
-25.7058 -4.34136 0 
21.4406 -18.9093 0 
18.8926 30.1471 0 
38.8908 28.4308 0 
-23.9307 -19.9256 0 
36.6825 -15.6923 0 
24.2012 10.3965 0 
23.5063 36.7458 0 
-40.3347 35.962 0 
14.8457 39.5427 0 
-21.3234 17.7487 0 
4.53734 9.25521 0 
10.4811 -16.9278 0 
29.7218 -40.5747 0 
-25.3766 8.62948 0 
32.1706 31.3616 0 
-11.9753 -0.976518 0 
33.609 -50.3578 0 
-24.6618 -23.3312 0 
39.5187 -36.6671 0 
-12.3538 18.7665 0 
-10.4942 45.1609 0 
-17.3274 40.2517 0 
44.1701 -17.3509 0 
15.5052 -30.9309 0 
-1.95826 -61.7302 0 
-6.33854 -46.8203 0 
1.35704 -59.6934 0 
-57.3214 -17.0924 0 
-30.3589 -30.2327 0 
-45.0337 -11.9995 0 
1.69563 -51.2675 0 
-6.46389 -47.3862 0 
27.4294 -4.18431 0 
58.2123 -12.457 0 
-57.7793 -12.1603 0 
-7.30382 -26.9889 0 
10.0504 -54.3422 0 
-21.7803 -31.4394 0 
-48.0106 14.1478 0 
-5.1011 52.4892 0 
11.4205 5.49679 0 
-27.3414 23.054 0 
-30.9602 -31.3298 0 
20.7976 24.4579 0 
29.1775 41.4989 0 
5.48732 46.4095 0 
6.83813 -13.9076 0 
-20.8969 27.2939 0 
35.4644 -48.1146 0 
9.81734 -34.5946 0 
21.3812 -40.8103 0 
-29.7086 -33.8154 0 
3.87346 -29.7938 0 
-22.658 -33.9543 0 
-18.7709 50.0676 0 
-7.36088 -33.8905 0 
43.2875 -9.5749 0 
0.409155 -12.4191 0 
22.0035 -15.0531 0 
-1.93403 40.0957 0 
10.8605 -59.9619 0 
7.49119 20.3006 0 
-19.3155 -45.044 0 
7.85829 -11.906 0 
-6.03829 -3.81648 0 
17.0587 56.4009 0 
-4.69506 -3.78973 0 
-54.4805 7.69552 0 
16.4586 -5.22862 0 
2.8099 -7.90658 0 
-45.537 -40.7865 0 
12.493 0.803141 0 
-56.1851 -2.40357 0 
-2.72143 19.0415 0 
19.8815 9.91146 0 
[...]
<CellData Scalars="wall variable 0">
<DataArray type="Float64" Name="wall length" format="ascii">
2.83084 6.34965 4.09182 1.16025 3.08711 0.921661 3.75278 0.570477 5.12848 2.62286 7.55344 3.96629 4.58954 1.23928 4.27755 3.59395 1.14561 7.39861 2.4141 1.7914 4.36102 1.71748 1.52835 4.19801 4.75784 0.950199 0.483363 7.96301 4.75784 3.71106 3.38913 2.14995 1.89154 4.48296 0.544195 3.5802 3.37727 3.33453 1.62567 0.37757 8.13036 5.327 1.20557 4.74218 5.61942 3.56084 4.36833 4.36641 1.97342 7.18205 1.81934 0.867572 4.98438 0.503119 4.52761 0.619294 6.57437 1.32116 2.59017 3.77386 0.835275 1.95023 0.754031 7.4264 4.14737 0.835275 3.05201 2.52882 5.6674 0.995851 5.12774 2.35707 5.01447 2.20937 3.61339 2.6231 2.69053 1.11487 3.26402 2.86036 5.49429 3.49782 5.6332 1.74616 2.82644 0.417588 3.66077 6.855 4.13831 0.92258 4.71821 4.67881 3.01554 2.74606 2.38106 1.37606 1.49776 5.25642 4.13547 2.74111 2.76385 1.52391 3.6078 1.0436 5.53132 0.305594 2.55794 4.0621 1.26024 2.69261 7.39861 3.19114 4.69197 4.02694 2.14455 8.39478 1.34128 1.99094 2.34931 7.164 0.639678 10.0089 0.708823 5.27182 2.4141 2.69261 1.33002 7.01591 2.00096 5.96438 3.74414 2.3439 4.13469 1.29697 2.52881 8.25454 1.92209 1.96224 11.7304 1.55399 5.11039 0.567426 2.30927 1.1475 0.887955 7.47844 0.467412 4.51762 3.81865 4.20856 8.70941 1.53888 4.63828 3.0059 1.79002 6.44482 2.31994 4.05528 4.80364 0.907284 5.52042 5.62175 6.55259 2.70673 3.77789 1.2606 0.4937 6.89023 0.570477 3.28981 0.365681 1.16025 3.99261 2.34677 7.12854 1.88444 3.55008 1.87074 0.155643 4.20666 5.14544 1.25848 9.29778 1.38957 1.87147 6.59142 2.33872 0.741329 2.28988 2.27455 1.43279 0.807714 0.910494 6.91753 1.99094 0.2275 4.44328 1.83377 1.67189 0.191075 1.42717 6.90395 0.365828 0.444386 3.55867 5.27353 3.13376 2.12772 7.45831 3.09438 4.42971 0.45826 7.92671 0.475022 5.07558 1.91595 2.09337 1.7809 0.693667 3.68107 6.97995 0.462271 5.59595 0.152553 0.724584 2.48996 4.71821 6.26912 6.94084 1.16031 7.12491 3.21332 4.54843 4.55638 1.07908 4.4383 3.25516 6.12133 3.74414 2.757 7.34753 0.322963 0.435168 3.83105 4.36641 0.852561 1.55516 4.24234 3.99833 2.01774 0.852561 4.36833 0.642472 10.3058 1.37108 3.33158 5.85989 1.80672 0.965618 4.98466 0.553866 4.11427 3.00183 0.48296 7.07845 0.616986 2.46626 4.88855 2.45557 2.52264 7.92579 0.678758 3.7525 3.05886 2.59572 7.09713 0.767282 4.69197 0.663222 5.17762 0.155643 8.75286 0.17184 7.68099 1.59448 4.15221 0.844647 4.80708 3.35943 8.51278 2.01432 3.28411 3.18952 0.907284 3.17479 8.43147 8.27368 1.23203 0.870409 7.4264 1.91299 1.87074 2.14847 3.34267 0.105683 4.87156 1.18811 4.71551 1.02343 8.21112 0.95436 4.79256 2.74606 2.6171 1.77738 5.55115 2.16225 1.52817 1.99315 0.556063 4.99874 3.56698 1.86927 4.20856 0.401932 5.96596 0.39435 3.77789 2.06609 4.00188 1.97738 2.48528 2.69232 4.68809 1.43279 8.03737 0.290844 6.03358 1.72943 1.38695 2.18973 7.68099 4.74218 2.08866 0.516273 4.52491 6.55905 0.813657 2.41708 6.21733 3.00794 2.90884 3.00216 0.406082 5.99692 2.98743 2.60223 0.559508 1.47518 3.00794 2.50007 1.62573 2.59272 3.60455 0.414163 3.62697 0.401932 3.23569 5.83408 4.98466 3.07342 3.1079 5.14719 1.93364 9.08093 2.33872 0.785403 1.25045 4.63622 2.04724 4.86982 3.75309 2.65772 1.91876 3.59264 0.931533 3.8395 1.15351 3.16123 4.08602 0.821613 5.10941 2.53693 0.987599 6.3507 2.69053 2.98854 2.56017 0.90074 3.00739 8.86086 1.72509 4.41579 4.18394 0.796306 0.380691 3.4242 5.85989 2.99749 8.66465 0.985531 3.19842 3.61304 3.93926 3.00067 11.5738 1.20468 6.91223 1.31125 1.67227 3.69406 3.49913 3.06292 5.16233 4.98692 0.984545 2.85136 2.60223 3.08735 4.82738 7.51814 3.63812 3.06216 3.08637 2.89213 0.324724 0.528228 1.38825 4.69637 3.46521 2.16225 1.97531 2.9598 0.329156 3.20447 3.15592 2.06119 6.43043 0.662547 4.45126 3.26028 0.932132 6.20338 1.20469 2.10139 2.38511 6.00752 0.329156 8.85762 0.528118 2.35788 0.785247 7.06804 1.94739 0.459933 8.08766 0.718378 3.55338 1.59448 2.18973 3.49443 1.36899 3.38913 1.66577 4.26711 0.52596 3.58492 9.08743 0.724584 7.80785 0.435168 6.07585 2.98417 3.07453 7.39034 3.16806 3.28411 1.60225 6.52025 1.91876 0.777367 2.17141 5.05549 1.03041 6.2371 8.25454 5.12338 1.29979 4.13008 0.451707 4.87776 2.21037 2.40386 3.80595 5.51173 0.114704 1.03041 1.83864 2.20937 0.610705 3.17479 3.23175 7.32734 0.382289 8.04352 0.417588 4.59573 2.81536 4.91711 4.52491 8.44771 0.695508 5.30842 1.62917 1.677 2.28988 7.81532 0.90074 9.01883 0.16685 7.26963 0.758011 3.62455 2.15918 4.13547 2.49787 6.6015 1.12489 2.1307 5.59595 4.93846 3.99964 1.77549 6.34396 2.9336 2.24591 3.74836 3.80595 2.34376 1.07363 10.0488 2.43339 1.27976 0.443679 3.89168 4.11281 1.08593 8.47829 6.20338 1.12601 8.16635 1.55104 3.15039 0.413961 3.20447 1.94739 3.63764 3.8299 0.459933 2.69647 2.87889 0.351828 2.83084 6.66135 4.59063 3.58072 4.63647 1.00646 1.94191 0.472616 2.15924 7.34753 0.984777 6.29632 1.00593 2.44622 0.467412 3.8897 3.04164 1.96615 1.65275 6.02294 2.64489 3.96629 3.31695 2.6171 3.01554 2.15918 2.45331 3.62766 2.64942 0.363062 2.34992 2.97714 1.62567 1.99007 1.08633 8.00379 1.50464 2.06498 0.732102 1.08129 0.469993 3.58492 7.4889 3.19467 3.16247 2.22012 3.35478 3.38979 3.06216 2.34992 3.66475 4.11281 0.845539 7.28348 0.414163 6.41753 0.968775 3.38144 3.7525 3.71215 1.19638 5.6674 0.652973 4.7959 4.88601 0.351865 8.41865 3.49443 1.38695 8.06546 0.244028 8.75286 1.38957 0.827392 2.8236 1.67655 4.13469 1.27738 2.08866 1.20557 1.51046 2.22398 2.50007 6.21733 5.10941 0.938519 2.34677 1.91299 0.754031 6.22282 2.20839 3.04504 2.68723 5.33484 4.64517 3.80821 2.10212 3.63421 4.91711 1.08049 6.29632 0.744145 5.816 0.758011 1.43288 2.42651 2.86369 2.59576 0.383407 1.19239 0.519826 2.17296 3.21332 2.02524 2.11827 8.27089 3.19362 6.79274 1.72251 4.14959 2.53385 2.7054 4.08763 3.33055 3.43161 4.24234 2.08356 6.94079 1.07789 3.79856 1.8823 3.89146 3.52995 3.22653 6.66453 1.52817 3.81865 1.36325 7.69785 2.18446 6.34396 2.76915 2.23465 3.40216 0.910494 3.0169 1.26225 6.21924 2.52881 2.70183 1.09556 3.21767 3.00051 5.12338 3.54885 6.23393 2.09337 7.9178 1.13141 5.57867 1.81332 2.8608 3.22486 6.01973 2.55707 9.55698 8.56851 2.67392 1.71919 3.90298 4.98438 4.06561 5.90461 2.01294 4.25714 4.45126 0.544304 1.60369 8.51278 1.37989 7.50105 5.11039 3.81045 0.290844 0.17184 3.00442 3.47744 0.744145 1.15373 3.17233 4.63622 3.39665 0.465394 8.51648 2.69647 1.36899 8.41865 6.01973 0.806302 5.07558 1.19127 4.21626 0.80885 0.677734 2.22723 1.80181 4.08763 2.353 8.16635 2.93158 0.968775 2.55724 2.75554 1.2158 6.80436 0.955104 2.08356 2.98885 1.38485 3.15592 0.413961 8.51648 1.8924 0.964196 6.91086 4.22557 2.52644 1.40563 0.31698 0.575017 2.06119 2.78673 5.33505 6.91223 1.28222 7.21779 1.81332 3.54555 4.48237 0.493025 1.66127 10.3368 0.324605 2.23465 2.33849 4.6124 1.56649 1.13141 3.9372 3.01049 2.44761 0.793236 7.90731 1.40596 6.144 6.00577 0.161997 0.78968 2.45557 3.58482 0.677734 2.74826 2.53385 4.05016 8.20655 0.720549 8.87287 1.15373 1.19239 8.06693 1.41751 0.567637 6.85433 1.40596 2.39833 1.72251 3.28545 4.13831 1.51904 4.22914 4.9043 0.31698 7.73617 0.4937 9.36508 1.18811 1.52252 5.81866 3.1079 0.868702 3.62676 3.38089 4.26226 7.92671 3.36468 0.543744 3.00067 3.4575 1.40768 4.01913 0.34771 1.23928 1.45013 4.1869 0.48296 3.54532 3.90207 1.09133 2.13099 3.94273 2.5077 0.5946 3.23175 1.23203 3.99649 1.05377 0.751711 2.63934 0.921661 2.47769 3.21685 4.70859 0.191075 7.06022 2.14847 3.55008 3.1173 3.0169 3.73996 6.01537 0.757145 2.01294 3.35943 4.80364 0.57577 7.92888 0.519826 0.568945 6.68066 0.395735 3.50299 2.26169 3.14481 3.26402 2.99981 0.87547 0.720549 6.87944 0.471362 7.21603 2.91853 1.48194 0.639678 4.87531 0.572561 0.27722 9.26107 4.86571 4.84706 0.572561 0.376063 7.37619 2.59017 0.683958 4.67881 2.48996 0.278784 2.61269 1.74616 0.995104 4.27755 0.34771 3.25234 2.65416 1.57729 1.99296 2.25337 3.30807 2.52264 0.78968 8.08149 6.5828 2.98417 2.44164 0.272031 6.86453 3.40216 0.324605 2.92046 0.731929 2.34931 6.91753 1.99785 5.61942 0.813657 0.650333 2.9603 2.76915 1.77549 2.80139 5.77571 5.04933 2.01646 2.64118 1.72172 4.98317 2.4859 3.72165 1.20469 3.15039 0.593272 8.9295 0.544304 0.662547 6.01794 1.4456 2.04724 2.55236 0.732102 7.2626 0.481888 1.0436 2.35762 1.60106 6.12514 2.44719 3.12437 3.61116 0.406082 2.22398 8.44385 0.307396 3.51621 10.0089 1.48194 2.14102 1.93024 2.59572 1.56166 0.233844 1.66127 2.0774 4.06561 0.867572 0.541959 9.26107 1.50464 0.411942 6.38081 0.583686 5.37864 0.64017 5.3335 2.41745 6.61655 0.395735 1.19974 0.838449 4.4383 2.93049 2.57083 0.173626 1.52252 4.87156 1.86712 6.97995 2.33849 6.21924 0.759276 6.35675 2.44578 0.324066 4.72556 1.53888 3.8949 1.43288 7.26963 4.15221 3.55338 2.68535 4.19565 0.397015 2.35707 2.38431 3.09438 3.04214 0.324724 9.68502 0.87547 3.96521 0.577314 1.93364 3.17233 8.87287 3.35039 3.38543 2.06609 2.70673 2.55916 1.71748 4.81196 2.98885 3.89146 3.72306 1.37606 5.98334 2.26581 4.63965 7.1517 2.12092 3.88569 2.33989 3.96521 2.99981 1.11487 6.3507 1.26225 3.1173 1.88444 2.90049 1.52462 3.0059 0.560541 7.34015 0.759276 1.08633 7.32353 1.32334 3.26028 4.25714 0.757145 0.724024 1.75502 3.52995 4.51762 2.44622 5.69735 0.838449 7.70388 0.777367 2.65772 0.505171 3.51355 1.38646 3.25516 6.59305 6.70832 2.40996 3.22035 2.78311 5.91887 3.01049 1.54718 3.72954 5.39071 5.43666 2.75783 0.984545 8.18079 1.52391 2.66507 5.88711 1.57753 1.52835 0.846317 3.08735 2.98743 3.05405 3.00496 1.1651 1.51904 2.20656 0.691268 4.98317 1.1656 3.34585 4.70859 2.33081 8.60601 3.37281 3.756 0.845539 3.89168 6.98894 0.577314 2.33989 0.987599 7.81532 0.741329 9.08093 4.29165 3.08637 3.38979 1.81397 4.27689 0.184277 1.10441 1.27976 4.92661 3.01547 1.37989 4.80708 5.76321 1.43675 10.0488 4.72224 0.707567 3.40552 2.14976 1.75502 1.94534 6.38193 3.88108 0.343125 2.93588 3.22653 2.40386 7.29501 6.19028 0.713207 2.34376 3.88 6.50499 3.02462 4.42536 2.8179 1.08129 6.12514 3.2893 6.70832 2.8236 3.82006 0.807714 4.68809 5.90069 2.65416 3.59251 3.90207 1.9034 6.40032 1.06207 4.04461 3.92463 3.26154 0.769768 5.01974 2.20771 4.73718 0.47861 2.99749 3.33158 2.46449 4.33622 3.01547 1.25848 3.31163 3.28188 0.567426 7.50105 2.12632 1.21901 4.0905 2.41745 1.8137 2.01646 3.08278 3.68486 0.559508 7.51814 0.790004 0.670168 3.68486 5.60485 2.78673 0.932132 1.32334 6.25081 3.37727 0.431695 3.88 2.80579 1.20468 3.87746 6.01794 6.43043 0.575017 3.54511 9.68502 2.89213 4.29165 0.105683 7.62762 1.8924 4.9043 0.277535 2.49787 0.462271 1.86712 3.78861 5.38385 4.48237 0.402773 8.08032 0.27722 4.87531 7.164 0.731929 9.48785 1.56166 1.41565 2.86369 3.95145 1.79002 1.52462 1.80475 6.29213 4.33563 1.72509 2.66729 3.80821 0.657262 2.25638 3.74296 1.00646 2.3919 3.08859 6.36058 2.40966 0.560541 4.63828 4.72556 0.32193 1.87437 5.52042 3.18952 3.16806 3.05923 2.97714 7.28348 3.756 3.25787 0.37757 0.662653 2.33081 3.21685 3.4069 3.46627 3.4575 3.93926 1.34172 8.60601 0.662653 3.61304 6.51695 1.53093 2.40996 3.2893 1.60106 4.4417 5.16233 0.351828 2.19674 3.28548 3.12437 2.36862 6.34965 3.59264 6.2371 0.114704 0.827621 3.67135 2.55236 2.26581 2.45181 1.41645 1.1656 1.34172 0.907976 1.35213 5.19007 4.29022 5.01974 4.24352 0.771734 3.04504 3.16123 8.6899 2.59576 1.41565 3.02801 3.05405 1.72172 1.55104 2.353 2.7054 1.55516 3.56084 1.02436 0.938519 0.821613 5.37902 1.80475 2.90049 7.12854 5.25642 6.26063 0.614651 2.3403 2.3919 0.324066 0.16685 1.03151 6.74345 3.39665 1.25045 5.3196 0.20349 1.25848 0.827621 5.51173 3.74836 1.96437 6.85253 2.86036 3.14481 1.5673 5.58103 3.51819 5.39891 0.414702 7.47844 0.716517 4.69637 5.69855 0.553866 5.14719 5.81866 0.173626 3.438 1.85689 1.38825 9.39469 0.344195 4.42513 5.69855 0.365681 8.57387 0.751711 0.763302 6.66135 3.08711 3.05886 3.38144 2.93158 1.68421 1.93414 0.2275 1.34128 3.51621 1.16031 3.1199 1.89154 2.94043 7.47665 4.06497 0.708496 9.64441 0.505171 3.75309 4.6091 3.69406 2.26169 0.288114 7.04697 0.365828 3.29151 4.22557 1.41467 1.5673 3.99833 3.43161 5.21272 0.998629 4.18394 2.66179 3.00739 0.998629 4.04994 4.33622 7.42463 0.566262 2.26917 7.76338 0.663222 3.19114 1.23692 0.528118 4.74565 2.52882 3.38455 0.376063 5.92157 1.1421 5.99406 0.652973 3.87436 3.79856 2.67711 0.995851 5.41741 0.619294 1.65867 0.614651 3.96096 6.74885 0.307396 0.315313 4.93846 1.4793 1.02343 4.69981 3.72954 3.82161 1.19127 0.475022 4.26226 2.17558 1.47518 5.60485 3.08278 5.04933 2.88749 2.90884 2.44164 6.07585 0.322963 2.15924 10.8479 3.11584 2.76203 0.617654 3.38423 3.56698 0.407288 5.39657 1.08347 3.74769 4.00851 1.97405 0.64017 5.79822 2.20656 7.73617 1.40563 4.22934 1.42717 1.7931 0.528228 3.04214 7.45831 1.49691 9.39469 2.26917 1.88729 1.97531 5.55115 6.89101 0.839155 3.13171 6.03358 3.81045 1.55399 0.414702 4.42513 1.2158 2.81905 2.8608 7.21779 3.4271 1.47504 2.30344 0.23502 2.11827 5.02331 1.75926 0.792368 6.144 1.40768 3.46627 3.17567 2.96411 1.45013 7.92523 3.68107 3.07453 6.5828 0.759802 3.438 2.57083 1.81397 3.35478 1.59519 4.70919 0.552835 6.90037 1.06207 7.11944 1.36327 4.59573 2.82644 2.61269 1.99007 3.33453 6.25081 7.32353 2.12632 0.670168 4.33956 0.483363 3.1357 5.79992 0.431695 3.5802 6.09201 2.10761 6.50499 2.73748 3.88432 1.31125 5.33505 2.80579 4.42536 4.0905 3.32303 3.50299 6.61655 1.49776 3.72306 1.8823 3.87436 6.26063 7.06804 7.79414 0.624824 3.63764 0.974551 6.52025 2.57861 1.61144 6.56162 0.233844 9.48785 2.92046 10.3368 1.02436 7.18205 4.50488 1.12489 4.64651 3.00496 5.28607 6.19028 1.45445 1.47504 3.58482 4.88855 2.4859 0.691268 1.7931 5.27353 1.98623 6.71528 2.53693 6.22282 1.95023 4.14737 1.19638 1.97333 1.69722 7.32734 0.5946 1.79473 4.86571 0.541959 1.81934 4.72224 1.07363 0.713207 5.28607 2.46626 11.2244 3.72165 6.71528 0.53331 1.1421 2.85442 2.10139 2.88902 6.08807 1.78502 4.87776 5.05549 0.277535 4.22914 1.1651 4.64651 6.6015 3.26585 8.00379 0.724024 6.01537 0.510741 0.104134 1.2606 0.448327 3.96096 4.71551 9.36508 1.83377 6.95669 0.760289 0.493025 5.38385 2.69833 1.5366 11.7304 0.729548 0.583686 5.16514 6.67864 1.02174 0.403208 7.42463 2.46449 1.37108 1.63716 3.79052 1.4145 3.92463 1.12601 6.00752 2.70131 1.58246 3.19362 2.74826 0.80885 0.442871 8.08032 3.09784 0.567637 6.855 0.683958 1.32116 0.870409 0.278784 6.94084 0.750632 2.70131 2.38511 2.85442 5.92157 8.18079 4.98692 4.4417 2.35762 3.6078 1.78087 0.552835 2.46297 6.59061 3.36786 1.06252 9.55698 3.99649 8.27368 1.25498 0.184277 3.71939 2.67392 2.91009 1.4998 7.47665 0.635438 3.22035 1.53093 3.06292 2.6527 1.75926 3.38455 3.05201 3.77386 7.37619 5.51774 4.73718 3.71058 8.10031 2.22723 8.20655 0.992057 0.699726 8.10031 1.03758 2.55707 4.21626 3.82161 1.54718 3.9372 0.950199 4.48296 3.1199 4.55638 2.00494 2.44967 3.1357 3.8897 8.70941 1.86927 3.38423 5.0887 1.4626 1.99315 6.66453 2.93588 8.75896 3.74296 6.6936 0.556063 1.4626 2.60636 1.94191 4.84706 1.79473 2.5077 3.88069 1.33002 1.26024 4.24225 0.471362 3.33055 1.80181 1.03758 3.71058 2.20771 4.04994 5.21272 2.01774 2.66179 4.41579 4.33563 4.63647 2.757 3.34173 6.36744 0.907976 6.51695 3.19842 6.35675 7.34015 2.40966 1.27036 3.28518 3.28981 3.75278 2.63934 8.57387 3.58072 5.07737 2.45181 3.88569 1.76909 0.377392 7.07845 4.1869 2.96411 3.05479 2.62286 4.63965 5.19007 1.96935 4.26711 0.785605 4.93219 2.57861 1.60225 2.01432 1.60369 8.9295 2.14995 9.08743 0.469993 2.8179 6.59305 0.635438 2.94043 3.63539 0.931533 1.97333 4.88601 1.86682 0.444386 7.04697 1.68421 6.80436 3.4271 1.28222 0.760289 3.59019 0.434668 2.1319 1.9034 3.54532 3.00183 2.418 6.38193 0.309778 3.79056 0.796306 4.21799 2.44761 5.91887 3.2275 11.5738 0.543744 4.33155 6.67864 4.52761 4.50869 3.08859 2.3403 1.65867 1.38485 5.98334 2.38106 4.79256 3.46521 0.650333 6.55905 1.62917 3.37466 2.98854 2.6231 2.31206 5.9336 5.3196 0.785403 6.59142 2.67711 1.07789 3.87306 4.42971 2.38431 5.12774 0.785605 1.66577 3.71106 4.19801 1.57753 1.48908 7.1517 4.7959 5.99406 0.53331 1.98623 3.55867 1.86682 1.23692 8.39478 2.18301 0.708496 1.67227 3.88432 1.77072 2.35788 0.64954 2.14102 2.91853 1.54331 2.55794 1.14561 2.55916 6.55259 4.06497 1.4998 5.02331 2.02524 7.12491 4.59063 0.763302 1.05377 3.34585 1.41645 5.07737 0.503119 3.90298 0.558429 1.27036 6.36058 4.50869 2.39833 7.90731 1.57179 0.992057 4.05016 4.14959 1.19974 6.68066 0.426562 2.88902 2.17141 7.70388 4.21799 8.66465 0.47861 5.51774 0.699726 1.57179 0.793236 0.868702 3.07342 0.965618 0.377392 5.12848 6.89023 1.69722 6.57437 5.41741 3.61339 1.83864 0.566262 0.403208 4.04461 4.29022 2.20839 2.66729 8.86086 0.152553 2.1307 4.50488 1.97342 3.83105 7.80785 0.681532 4.99961 2.70183 1.29697 1.5366 2.56524 6.02294 3.8299 0.624824 0.656978 6.09201 0.544195 0.88322 8.08766 0.488265 3.34173 0.985531 3.2275 5.16514 6.38081 3.02801 6.29213 5.37902 4.08602 1.76474 6.89101 1.77738 2.64942 1.21554 1.03151 5.14544 1.4456 3.87746 3.49913 4.6091 4.86982 3.16432 5.79822 5.37864 0.729548 1.96224 0.846317 7.96301 4.33956 0.790004 4.82738 0.792368 2.6527 2.85136 2.75783 3.95698 6.00577 1.06252 0.315459 0.837406 0.708823 4.10576 2.13099 2.91009 8.56851 0.558429 5.90461 2.0774 4.6124 2.44578 3.28518 3.09784 0.402773 3.54555 5.57867 1.56649 6.85433 0.342595 5.39657 2.77488 0.657262 4.64517 1.32957 1.67915 2.27307 0.31578 2.48528 0.750253 3.97239 3.00216 2.88749 5.77571 2.47769 7.55344 3.05479 3.17567 3.4069 2.21037 1.78502 3.81052 2.30344 1.45445 7.29501 0.315313 8.44385 1.51046 5.327 1.99785 3.99964 3.61116 3.28548 3.06815 2.66507 5.99692 0.288114 6.87944 1.41751 2.79926 3.8395 3.63539 4.76569 8.21112 1.4793 2.9336 2.18446 0.819229 0.448327 3.99261 4.09182 2.36862 2.44719 6.74885 2.3439 6.12133 1.38646 4.08632 4.02694 0.767282 0.244028 3.29865 5.73592 3.66077 8.04352 1.15351 2.79926 8.06693 0.383407 8.6899 0.88322 8.13036 3.25787 3.37281 1.14622 2.68535 0.718378 4.01913 7.92523 1.09133 3.59251 3.25234 0.759802 6.86453 0.303762 3.88108 2.418 4.11427 1.85689 0.839155 1.76474 4.20666 5.17762 7.76338 0.955104 0.465394 0.351865 3.1007 3.13376 3.87306 6.94079 3.60455 1.65974 3.54885 0.771831 2.55724 6.41753 2.34404 8.08149 0.161997 3.95698 5.43666 1.4207 1.21554 3.62766 4.09963 3.00442 6.74345 0.272031 10.8479 0.472616 2.60636 8.75896 0.343125 0.303762 3.06815 2.19674 2.87889 1.76909 2.12092 1.48908 5.88711 0.150235 3.51819 3.80606 3.32433 0.819229 7.69785 3.67135 6.85253 1.60599 1.61144 4.93219 0.593272 3.1007 8.06546 1.72943 3.13171 0.344195 1.49691 2.12772 2.06498 5.3335 1.97405 2.94689 7.2626 1.67189 2.69833 3.78861 0.442871 3.34267 7.06022 0.516273 1.27738 2.41708 3.97239 3.98093 8.44771 1.14622 6.98894 0.443679 5.76321 0.844647 4.19565 1.67655 5.90069 2.69232 0.31578 2.80139 3.21183 2.00096 1.94534 5.69735 1.00593 1.08049 2.81536 1.36327 4.08293 0.434668 1.21901 5.79992 2.44967 2.49321 0.57577 3.32303 3.47744 4.09963 2.45331 3.62455 5.816 2.18301 2.14455 4.08632 3.51355 9.64441 1.57737 3.80606 5.58103 1.41467 6.91086 3.73886 6.62762 1.4207 5.39071 2.76385 0.568945 8.27089 0.23502 3.81052 6.08807 0.426562 0.95436 4.76569 3.32433 1.57737 0.964196 7.62762 2.64489 2.56524 1.02174 4.33155 3.36468 4.58954 6.40032 2.1319 4.08293 7.11944 0.771831 7.9178 1.91595 0.806302 3.22486 2.81905 2.75554 4.10576 7.01591 3.88069 3.94273 0.670438 9.01883 2.56017 3.37466 5.30842 1.78088 2.40941 3.31695 3.59395 0.995104 5.6332 0.827392 9.29778 0.20349 5.9336 1.87147 3.82006 2.31206 5.49429 5.39891 0.150235 1.36325 2.9603 1.00925 5.53132 0.481888 2.94689 4.00851 3.70364 4.27689 6.90037 1.78087 1.71919 3.71939 2.59272 9.60302 1.7809 6.23393 1.65974 1.58246 0.750632 6.26912 0.92258 3.28545 6.79274 2.49321 2.00494 4.54843 2.17296 7.92888 3.21183 2.64118 1.8137 2.93049 1.07908 5.96438 0.750253 8.03737 2.27455 1.677 0.670438 0.695508 3.98093 0.108392 6.56162 1.60599 1.96437 2.24591 1.43675 2.75476 2.9598 1.88729 4.74565 8.85762 3.62697 3.71215 0.678758 2.87 5.96596 0.610705 5.01447 0.397015 3.54511 1.10441 1.25498 8.43147 2.25638 2.77488 0.407288 4.99874 6.6936 0.411942 7.4889 0.52596 1.96935 1.35213 6.36744 0.488265 3.8949 6.44482 3.95145 2.42651 0.785247 1.77072 2.73748 3.02462 2.10761 0.656978 7.79414 2.87 7.09713 1.93024 0.64954 5.62175 0.39435 4.44328 1.93414 3.59019 6.95669 4.22934 2.52644 3.29151 6.90395 4.24225 4.0621 1.54331 7.21603 
</DataArray>