<VTKFile type="UnstructuredGrid" version="0.1">
<UnstructuredGrid>
<Piece  NumberOfPoints="    3349" NumberOfCells="    2463">
<Points>
<DataArray type="Float64" NumberOfComponents="3" format="ascii">
-46.5267 -36.1594 0 
6.88834 7.27245 0 
38.5537 -4.61934 0 
0.974179 -48.0539 0 
-20.6768 37.0907 0 
-51.9147 19.682 0 
5.95975 -33.5532 0 
-32.631 -40.6804 0 
-0.383089 -39.7865 0 
58.5293 -20.7723 0 
-48.668 11.5286 0 
36.076 -17.371 0 
-10.7812 31.3982 0 
5.13229 -49.8476 0 
52.8807 19.5487 0 
-8.15645 -32.2144 0 
-15.6307 14.3201 0 
-39.1291 24.7663 0 
-22.2962 -29.773 0 
23.9379 -15.1872 0 
18.5486 46.2271 0 
33.608 40.032 0 
-38.9583 -32.2742 0 
4.23004 0.736764 0 
0.621461 -24.1588 0 
42.4488 -7.74529 0 
-25.2299 -46.2504 0 
-21.1367 -42.5545 0 
-43.7552 11.823 0 
-49.2047 -10.4018 0 
20.4655 38.0338 0 
34.5416 17.69 0 
-31.187 -49.8475 0 
-25.5572 48.9444 0 
-22.1945 -10.5397 0 
-43.8767 -32.6773 0 
-11.0687 27.5939 0 
-6.97961 39.0925 0 
27.1717 43.9198 0 
-7.19062 -51.4175 0 
30.62 26.8565 0 
-38.4313 -3.34945 0 
29.7386 -49.3269 0 
-33.603 51.8319 0 
13.5222 37.6021 0 
51.7724 -15.6237 0 
-9.92541 -1.06311 0 
-21.2508 26.0788 0 
4.85089 16.8694 0 
-3.93372 -33.2863 0 
32.2766 -27.4261 0 
19.3377 57.4963 0 
-19.287 -7.26864 0 
35.6808 -32.6277 0 
-19.651 -18.6446 0 
-34.2082 5.20454 0 
-7.53555 -40.598 0 
42.286 41.9962 0 
10.9525 -21.3934 0 
13.4573 42.1786 0 
-20.6855 26.1135 0 
43.0453 -30.1399 0 
38.2864 -38.4069 0 
31.558 -20.354 0 
-47.3494 25.4729 0 
6.94328 44.952 0 
19.5044 24.3444 0 
-51.7067 -21.7744 0 
18.8981 -13.5048 0 
43.3034 -20.8761 0 
11.5763 -3.14031 0 
-42.5223 -31.2485 0 
33.6956 47.3283 0 
-24.5935 56.3261 0 
57.3205 15.1889 0 
-37.0968 -15.5936 0 
18.8422 -20.9156 0 
-35.2231 36.1793 0 
20.1719 -36.5194 0 
0.592254 60.3153 0 
-56.6269 -5.27711 0 
24.6988 -30.2768 0 
-8.16595 -8.79316 0 
-52.2041 -13.4555 0 
42.961 21.5963 0 
46.9788 33.9228 0 
-54.4597 -12.1265 0 
-0.901591 45.7892 0 
-36.6783 6.86859 0 
-31.6035 47.3206 0 
1.62711 -38.4752 0 
-22.7047 -22.6259 0 
19.4392 25.4979 0 
-54.2165 -28.0521 0 
24.0733 -30.8263 0 
18.271 17.296 0 
23.7972 -1.79409 0 
-16.7926 32.0332 0 
-13.7318 59.173 0 
9.47156 -28.3771 0 
17.3671 53.3408 0 
-40.6716 17.5344 0 
39.7842 10.5128 0 
-51.7081 6.00151 0 
50.502 -14.4751 0 
-11.2445 -1.14573 0 
-50.4438 -3.87761 0 
24.5312 -2.11167 0 
14.5036 -24.9438 0 
-42.6042 6.99854 0 
52.6418 -25.4052 0 
-14.0125 10.1862 0 
-23.2887 -42.0131 0 
20.3803 32.0948 0 
38.1893 -15.5804 0 
60.8882 3.20967 0 
-25.6016 -23.0125 0 
5.15352 -19.7713 0 
40.0995 -42.4275 0 
31.2111 -3.88623 0 
25.3451 6.63151 0 
-7.67984 55.2839 0 
24.6693 -43.3318 0 
-48.1968 -18.459 0 
11.0811 -47.9615 0 
-33.8089 38.5514 0 
-12.0988 -17.323 0 
35.9861 -32.2918 0 
25.0592 46.288 0 
7.51307 -42.6322 0 
6.70997 58.1098 0 
-17.8856 -1.89308 0 
-36.0007 -26.6839 0 
-10.4347 -14.365 0 
30.0131 -16.7686 0 
-35.2142 40.8917 0 
26.9742 -4.61231 0 
47.0602 -28.3824 0 
-39.0815 -6.21059 0 
-21.1282 36.6258 0 
-43.4962 3.72763 0 
17.1822 58.8001 0 
-18.8731 -55.8697 0 
-4.49313 12.7637 0 
40.9824 38.1822 0 
3.10179 26.1825 0 
15.6443 32.332 0 
18.491 -20.6731 0 
34.5412 18.3214 0 
10.8193 34.1589 0 
-54.7379 19.3064 0 
-47.6725 -24.9341 0 
50.5819 27.1814 0 
-18.3242 37.2889 0 
1.53836 59.6396 0 
13.6864 -51.4102 0 
7.32421 16.2542 0 
15.8628 10.2384 0 
-46.6672 -8.72348 0 
-2.63485 -58.6858 0 
-18.2367 -3.15952 0 
-11.2046 -11.9854 0 
2.89045 49.4009 0 
-37.475 30.3471 0 
-45.2931 -25.8952 0 
49.4763 -34.0886 0 
20.9687 26.8213 0 
13.6925 -14.8839 0 
-34.9203 -40.0095 0 
-14.0867 -20.7053 0 
44.8446 17.052 0 
-12.8626 44.5398 0 
-28.7487 12.1354 0 
42.4868 11.1768 0 
12.3773 60.211 0 
-23.8543 32.4699 0 
-11.1076 20.8196 0 
-25.8492 48.7484 0 
19.6743 23.998 0 
11.3942 -6.49736 0 
45.3871 33.2653 0 
-33.3784 -16.6767 0 
-37.5123 18.0277 0 
-2.80751 -41.2508 0 
-35.3935 41.1393 0 
37.8158 -22.369 0 
39.7195 -32.8911 0 
8.87455 23.8581 0 
-28.5999 39.6026 0 
-22.4627 -9.88905 0 
39.5735 0.427255 0 
56.9034 3.32548 0 
-16.6811 -50.5791 0 
-17.984 -56.7007 0 
45.7142 31.6988 0 
24.1405 -15.4303 0 
33.7407 29.6296 0 
-15.4702 9.02526 0 
44.5192 -15.951 0 
-43.4235 36.0965 0 
36.9362 -20.5892 0 
24.1112 -1.96649 0 
-12.6246 9.14071 0 
-17.7802 37.2858 0 
-10.3307 -25.1597 0 
-13.415 59.3656 0 
20.2268 51.4512 0 
-11.1817 29.1197 0 
-1.71174 -4.22986 0 
-29.8941 15.3227 0 
17.987 -45.9587 0 
42.2322 11.0612 0 
37.7146 29.1228 0 
0.784651 38.9824 0 
-24.1425 56.4177 0 
-18.0635 -37.7075 0 
47.6805 -28.2969 0 
-2.69211 33.432 0 
13.9888 50.9601 0 
60.6295 -12.1906 0 
-11.4104 15.4667 0 
-21.2931 2.98941 0 
30.3618 -38.634 0 
28.7092 -44.6012 0 
10.0712 20.695 0 
14.9615 -26.7914 0 
36.8973 45.1969 0 
-3.02267 41.6346 0 
34.5708 -26.3506 0 
32.2097 -34.274 0 
-42.7243 -19.7581 0 
13.0578 -2.00686 0 
-52.8501 2.70321 0 
-2.477 -41.66 0 
-44.6292 -16.8158 0 
16.1533 -31.3824 0 
-38.918 -9.33403 0 
-7.47119 4.99374 0 
-19.6571 9.05009 0 
-16.6678 -13.826 0 
24.1438 -44.4938 0 
-7.0204 -50.9381 0 
-23.4769 41.3435 0 
-31.2071 -1.49627 0 
17.7569 -9.18221 0 
-26.7135 12.6164 0 
1.75084 10.6735 0 
-3.76778 -17.3516 0 
-7.61349 14.8128 0 
57.4565 4.54803 0 
55.6315 -5.11637 0 
38.4512 31.8307 0 
-29.4999 -13.8125 0 
21.1803 -8.97902 0 
5.62188 -16.0564 0 
29.9982 -30.5423 0 
-23.1995 -5.27167 0 
8.07283 -25.2115 0 
21.5521 -2.24761 0 
12.0194 -40.1503 0 
-16.7858 -26.5018 0 
-29.4166 -22.0359 0 
-21.2876 12.869 0 
33.0422 -26.5928 0 
10.5138 -56.1907 0 
37.1953 25.6604 0 
-59.2293 6.80061 0 
0.618252 34.5033 0 
41.3229 -40.2981 0 
41.456 26.5493 0 
-55.2782 -20.5082 0 
27.0371 37.3414 0 
-19.0544 -30.634 0 
-49.8252 -34.3832 0 
9.00365 52.4829 0 
16.5399 -54.3449 0 
-14.1708 58.7854 0 
-20.0739 16.2121 0 
-15.3541 -32.2478 0 
-54.0595 -27.4419 0 
8.41047 29.1728 0 
-28.2153 -0.0301758 0 
29.3287 -39.1469 0 
29.4713 26.1676 0 
3.28413 -56.717 0 
-44.9801 23.5129 0 
-44.1407 12.0104 0 
20.2748 -49.8881 0 
-37.5116 30.7823 0 
31.6732 4.7685 0 
-24.1784 -9.75663 0 
-59.9242 -2.87689 0 
-2.71905 13.452 0 
-41.4758 -19.7484 0 
51.6517 16.2896 0 
33.1627 -6.71065 0 
26.0573 55.9444 0 
-1.58075 20.3418 0 
-45.7321 -14.8324 0 
-4.13916 -22.4142 0 
51.1273 -2.08938 0 
-50.5704 33.7929 0 
42.0461 -10.3565 0 
-5.30725 34.9157 0 
3.16704 32.8457 0 
53.0536 29.5461 0 
-31.679 47.8683 0 
-47.2496 36.5646 0 
26.3865 17.336 0 
16.6331 19.3463 0 
-8.43656 -49.6413 0 
19.3817 -39.3187 0 
-3.07677 52.0928 0 
-32.4003 -27.771 0 
-56.6861 9.99185 0 
56.8912 -9.28496 0 
7.38923 -59.4703 0 
-15.9921 48.5802 0 
-38.2109 17.9326 0 
45.634 -41.4179 0 
32.1341 34.3827 0 
-11.7938 60.1186 0 
-52.2189 31.5429 0 
-36.9303 -44.3681 0 
35.8724 24.1657 0 
-52.2281 -31.864 0 
42.4631 -8.12722 0 
-43.1011 -43.6898 0 
-28.1065 31.1082 0 
-18.5795 -0.373924 0 
12.4604 -8.08466 0 
-23.8905 41.3348 0 
-28.758 -22.8406 0 
46.2607 6.46633 0 
56.344 21.2944 0 
-56.8772 13.7446 0 
-35.3438 -23.6411 0 
-33.8863 21.0828 0 
-30.7768 -4.26897 0 
26.1317 -40.6605 0 
-31.6314 19.4531 0 
-44.8493 43.5692 0 
15.7782 -28.7354 0 
52.6763 19.2601 0 
-36.1996 -35.5923 0 
-13.2178 40.5102 0 
-1.63138 13.1095 0 
-39.7485 -4.96631 0 
-7.35594 4.08795 0 
-14.1448 -35.7724 0 
-21.7334 25.5391 0 
-9.84097 -25.3183 0 
-48.2287 26.6069 0 
-37.0501 -45.3942 0 
-44.1183 35.4808 0 
-14.6712 24.8597 0 
-30.0326 16.4788 0 
28.0329 -23.5952 0 
48.5646 -26.5658 0 
-27.1628 32.0811 0 
0.358974 -53.9322 0 
-6.40842 -32.8068 0 
-31.5516 27.5472 0 
-40.5262 39.8844 0 
-27.0192 -31.7015 0 
-34.0802 -34.2661 0 
-7.29032 26.0656 0 
31.9748 20.1483 0 
36.297 12.9534 0 
-0.153247 -0.455094 0 
-0.402943 -14.2296 0 
-13.9449 -34.0302 0 
-44.0014 -0.68944 0 
14.5558 38.451 0 
2.34659 -13.6708 0 
-51.916 -20.8968 0 
22.6521 -25.7986 0 
0.129176 -24.3914 0 
-8.46303 7.69646 0 
-28.6567 -51.7904 0 
-41.9612 5.76673 0 
-18.5612 17.6469 0 
-49.977 22.0739 0 
-18.4471 -46.5223 0 
-46.9528 25.3048 0 
-20.396 10.8688 0 
43.8485 44.292 0 
-45.6152 -37.9929 0 
-6.42091 23.0434 0 
28.3455 50.5917 0 
38.2132 -10.7584 0 
-4.50805 2.87058 0 
13.469 -45.796 0 
51.5556 -32.3314 0 
49.9493 -33.209 0 
-26.2813 1.2311 0 
-33.6026 -17.1643 0 
-30.2122 -36.1398 0 
-57.6832 -10.4718 0 
-3.54278 51.8326 0 
25.5705 -18.2236 0 
49.6641 24.4481 0 
31.8636 -14.5445 0 
-15.5035 -51.4093 0 
-38.3679 31.5603 0 
-33.7289 -0.00454201 0 
-11.8093 -47.33 0 
-16.0202 8.90141 0 
22.3995 56.9781 0 
7.70428 15.098 0 
5.06027 44.309 0 
-55.8086 25.3317 0 
19.6495 12.6834 0 
-45.4295 -1.61677 0 
-24.4563 -35.3378 0 
42.5071 -38.0344 0 
12.2459 55.7987 0 
-48.903 -28.4814 0 
-30.1673 -5.23418 0 
25.2632 -22.2874 0 
22.4757 35.5475 0 
45.3991 33.4462 0 
-28.0573 -23.3732 0 
43.0019 -18.4955 0 
28.8271 12.5268 0 
27.4243 43.0786 0 
-46.7302 41.6297 0 
17.4 46.2941 0 
-24.811 20.3943 0 
5.16246 10.4469 0 
12.3144 -19.7119 0 
34.7931 -47.4269 0 
-29.3337 9.75157 0 
37.7544 36.8483 0 
-14.1354 -0.919729 0 
-39.471 -5.65226 0 
-29.0251 -27.4355 0 
4.62934 -5.03729 0 
-14.2615 21.834 0 
-12.7873 53.2948 0 
-20.2817 47.0065 0 
51.9926 -20.1676 0 
18.0539 -36.4507 0 
29.5772 5.22173 0 
-7.13374 -54.5682 0 
-16.7102 -14.2597 0 
-44.2721 -17.2016 0 
-35.1486 -35.2244 0 
-52.6546 -13.7837 0 
2.21068 -59.8118 0 
-7.36691 -55.2466 0 
32.176 -4.65128 0 
-47.1492 16.2625 0 
2.04538 25.5941 0 
-8.51467 -31.98 0 
-25.6593 -40.3831 0 
-25.8579 -36.8916 0 
-56.4651 16.5672 0 
-5.86377 60.9371 0 
13.1784 6.5115 0 
-32.1718 27.1518 0 
-36.2205 -36.6319 0 
23.8711 28.7324 0 
34.0808 48.0702 0 
6.298 54.4618 0 
8.10828 -16.0405 0 
-24.5942 31.816 0 
-46.969 -13.439 0 
11.3847 -40.7022 0 
25.1432 -47.5701 0 
-34.8155 -39.8991 0 
4.73993 -34.7068 0 
-26.4232 -39.857 0 
-21.7965 57.9221 0 
-8.69709 -39.4346 0 
51.0874 -10.7239 0 
0.178129 -14.6318 0 
25.7859 -17.7148 0 
-2.42393 47.155 0 
49.216 -13.3887 0 
9.02314 23.6785 0 
-22.6597 -52.608 0 
8.89735 -13.613 0 
-7.02857 -4.36668 0 
-24.1987 -47.2831 0 
-5.4781 -4.03223 0 
-31.6644 33.2717 0 
18.9508 -5.76613 0 
3.25419 -9.16235 0 
3.52299 50.3774 0 
14.8114 1.00659 0 
-23.6477 -52.6257 0 
[...]
<CellData Scalars="wall variable 0">
<DataArray type="Float64" Name="wall length" format="ascii">
3.34276 6.53847 4.49599 1.41594 3.61793 1.05796 4.37382 0.672792 5.84264 2.99495 7.95678 3.60484 1.29359 4.30183 1.8653 5.37219 1.31018 7.21848 0.155791 1.57198 3.88896 3.47426 1.83035 2.864 1.9588 4.31136 1.137 1.14887 0.562611 8.29855 4.31136 4.2035 3.26886 6.68361 3.46973 5.41218 3.99881 0.668138 4.24716 5.76427 1.49647 5.43083 5.67108 3.96977 5.29892 4.07331 3.92735 0.352116 5.3922 0.595595 4.12701 9.24708 1.65543 2.86656 4.15402 0.99562 2.30603 0.905083 7.63853 4.78242 0.99562 3.53099 0.939512 1.833 5.71647 2.94994 7.32305 2.27315 2.43063 1.86283 1.23715 3.07047 3.12557 1.30288 3.77557 3.12801 5.58839 2.73598 5.52067 3.68666 4.39011 1.3212 2.45994 1.05014 5.22327 2.54173 7.15063 1.90868 2.65721 1.58846 1.68775 3.14013 6.83169 3.42439 6.22827 6.66942 1.87191 0.33634 3.63132 3.36336 2.94769 0.361438 7.31578 2.91433 2.54982 1.86079 4.24366 7.23431 1.57198 2.34208 2.79075 7.73648 0.749088 10.5091 1.16204 6.58758 0.364382 3.17983 3.96748 0.931974 1.38358 2.13651 0.237409 6.18215 4.16002 2.749 4.68848 4.67615 4.6965 1.76549 7.26417 4.94095 2.00472 1.0959 2.76935 5.69466 1.77526 1.90987 2.02232 5.3927 6.82056 1.61249 5.40091 0.910508 2.7354 1.77526 0.230173 6.45436 4.1058 0.744199 3.52122 1.82114 2.58115 4.78409 0.385466 3.71711 2.0139 0.469772 4.82763 5.41218 1.52601 0.592696 7.11674 0.672792 3.74341 0.430044 1.41594 4.76496 2.72682 7.19321 2.168 4.24027 2.30438 3.11724 0.976029 5.06367 1.50406 0.982631 8.22384 2.12365 6.8032 2.65341 0.866201 2.74238 2.67959 1.67001 0.970254 1.09774 6.97331 2.34208 0.155791 0.142167 4.9292 2.06561 0.350658 1.7328 0.248924 1.56603 7.00643 0.446712 0.552372 4.14653 5.94316 3.71878 2.49452 7.9357 3.48951 4.87043 2.60829 1.52339 1.32628 5.06367 8.85259 2.32406 1.97733 7.04324 0.557505 6.28046 0.19946 0.939888 1.99501 5.22327 3.32625 7.07388 0.449231 7.83435 3.08171 1.3212 7.54805 1.23843 5.15776 3.82474 5.52198 0.90804 4.16002 1.94827 1.18968 7.52299 0.399006 0.527263 1.09916 3.37243 5.04458 0.988131 1.81755 4.29703 1.24033 3.21964 2.35375 0.988131 1.11711 3.96977 4.02857 0.892417 4.17033 1.92829 2.23057 6.33658 4.8541 0.670159 4.65654 1.17927 8.15946 2.99155 4.47246 0.498221 1.33107 3.09375 5.08188 3.47596 3.63233 2.32334 1.86283 5.89806 0.920262 5.53074 0.742976 5.48822 0.186264 9.26793 0.208142 7.94304 1.92829 4.41443 0.979153 3.19281 2.33832 1.92806 4.71049 2.1192 1.78147 2.67766 0.283477 2.53993 3.67852 8.48497 8.92372 1.3592 0.566491 0.525097 7.63853 2.26328 2.30438 2.55308 2.27117 1.68637 0.125086 5.67164 1.37573 5.33677 1.19052 3.00165 5.70149 1.10273 0.796448 9.66479 0.595169 2.52626 5.45785 1.90868 2.48105 0.946084 0.875115 1.69372 2.88619 1.78446 5.74391 0.535641 3.59655 2.90131 0.95553 4.94095 0.557134 4.95923 2.89995 2.47863 0.579036 5.19195 1.67001 8.10538 0.35886 4.96828 1.58741 2.08695 1.74033 0.414886 2.23057 7.94304 5.43083 2.60946 0.603627 4.93464 3.75817 3.21671 0.949821 2.84304 6.37176 3.5497 1.64152 1.69455 1.79674 1.5956 2.72429 7.31578 0.291932 1.80627 3.5497 2.94181 0.495118 1.86079 1.69604 0.793424 0.861525 2.1143 4.72916 1.07697 8.07518 4.8541 1.00176 3.55266 3.45309 5.17124 2.31625 9.34322 2.65341 0.926078 1.51345 5.35952 4.53035 6.21539 3.38285 1.39108 1.08259 0.46195 1.35798 3.63463 4.54368 0.965864 1.87184 6.68473 1.12332 6.42145 3.12557 1.90593 1.51684 2.86127 1.01607 0.147874 2.89995 0.885392 4.09836 0.583741 1.5956 9.34472 3.08521 0.651101 0.722939 6.46426 1.75964 1.08259 7.03392 0.695254 7.38075 8.79276 1.15847 0.532623 3.07491 1.45531 7.074 0.824925 0.616635 2.1143 4.15879 3.88157 1.08194 2.58115 5.17603 5.3238 1.14589 3.1998 2.94769 3.20056 0.355526 5.5249 7.74941 6.44281 0.383994 4.72074 0.308596 6.11459 2.33221 6.93857 0.265751 3.74558 3.77978 2.51627 6.64209 0.722939 5.19676 3.68099 1.12543 6.64866 1.40608 2.57388 2.78753 6.14277 0.265751 0.120132 9.06945 0.663842 2.7212 0.8747 7.60738 2.20553 3.94611 1.0043 6.33658 0.414886 4.01849 1.64103 0.587707 1.77465 5.0055 0.609514 4.06182 0.982845 7.96854 3.04965 7.72116 0.431677 0.939888 8.54472 0.527263 1.71985 2.30264 0.988069 3.18818 0.595879 2.63247 0.292769 5.54101 2.26651 0.988069 2.65607 1.81462 3.86953 1.26134 6.40271 1.137 6.68361 0.678274 0.262176 2.35462 2.36092 2.68436 2.32864 4.39961 4.86196 3.43695 7.02805 2.20077 2.27315 0.253146 0.713113 3.67852 3.86285 7.48764 1.9588 5.24175 2.60885 0.874924 1.77465 0.292978 4.2035 4.93464 5.56724 3.37341 0.83501 5.99729 1.83153 2.04572 2.74238 8.24715 1.01607 9.29013 0.214787 7.69594 0.875115 4.24801 2.51454 4.84186 1.48266 6.67407 1.33107 2.6138 6.28046 1.53107 1.76801 4.61472 2.05653 3.27959 5.81144 0.498221 8.35538 1.09916 8.54472 0.19946 2.6138 5.43755 4.77926 1.04234 6.3976 6.64866 1.23161 4.51679 3.96191 1.74824 3.67559 0.499688 3.74558 2.20553 3.9503 4.45738 0.587707 3.26481 2.7168 7.02805 0.381515 3.44655 0.432663 3.34276 5.06815 1.26294 2.47743 0.571569 2.56802 7.52299 3.27 3.94461 3.79863 0.399559 7.02477 2.85158 3.68352 4.72074 0.418434 0.371588 9.76593 3.03246 3.62768 2.51454 2.78727 4.2571 2.60829 0.430817 1.24033 3.77362 5.50258 1.12938 6.16617 1.9255 2.62113 0.936232 1.33714 0.558195 4.06182 7.61784 2.31279 3.44655 2.15987 2.26073 8.77547 5.0316 2.24271 0.552372 4.22638 0.361617 5.9257 2.46247 2.16196 1.65763 3.21105 0.46195 0.594875 5.86972 1.39537 5.71647 0.732764 5.12889 5.0316 0.570697 0.411371 9.15864 4.01849 1.74033 5.44187 3.10903 0.300189 9.26793 1.61396 1.00704 3.40361 2.00672 4.68848 1.50906 2.60946 1.49647 1.83311 2.65552 2.94181 6.37176 3.79365 1.87184 1.10625 2.72682 2.26328 0.905083 6.3433 0.717904 10.2194 2.31783 6.57865 2.79405 1.29861 4.68596 5.38237 0.473938 2.35759 6.79085 2.8898 5.74391 1.59623 3.00651 0.454046 1.45639 0.931974 0.644239 2.60046 3.19925 0.449231 2.3002 2.53993 8.5097 3.59782 6.9873 1.926 4.92247 3.01069 0.765526 4.71974 3.81319 3.77362 4.29703 2.37086 3.90508 5.37219 0.430628 4.57919 2.38353 3.93524 3.68661 3.8414 3.33284 1.74124 4.43596 1.68378 8.18154 2.55727 3.53038 3.27959 3.28218 2.60449 4.02341 1.09774 3.57334 1.47325 6.25582 0.779067 10.6146 0.567732 2.81962 3.37539 6.90324 0.362027 6.74159 1.32219 0.556087 4.76496 4.49599 5.88805 2.05753 3.15617 1.36844 10.2194 4.10212 6.45436 4.42347 2.88619 4.56755 5.3922 4.71719 1.0809 5.18435 1.77226 6.65114 1.90475 0.779067 1.5141 3.86898 4.83557 1.90326 1.01757 4.14714 0.805263 4.54571 2.50221 5.35952 3.27749 6.58758 0.551569 8.95665 3.26481 1.64103 9.15864 1.65973 2.27377 5.64524 0.337937 1.48266 6.81862 1.78205 5.07799 4.51679 0.915162 0.822251 2.75768 3.25558 1.16441 3.08857 3.24196 1.33553 6.8813 1.13526 2.38353 3.5364 1.705 3.77978 0.499688 8.95665 2.27377 1.14433 7.33507 1.31412 3.36573 3.03217 1.73843 0.397332 0.698332 2.51627 3.26276 5.69721 7.074 1.44896 7.33914 2.05753 0.475496 3.5724 5.38237 0.600187 1.95647 10.5114 0.362584 2.60449 2.77887 5.25147 4.04455 4.95923 3.19676 1.75288 1.85389 1.29861 0.8747 1.05846 1.07697 3.1989 3.48823 2.46473 0.800857 7.91639 0.822251 3.39158 3.01069 1.68643 2.76935 8.4205 0.875353 9.23965 1.38358 1.45639 8.76025 1.65763 0.637411 8.25152 1.88357 0.65757 3.64281 3.91782 1.75288 1.81707 4.85748 5.64524 0.397332 7.92079 0.592696 9.48694 1.37573 1.79501 6.39983 3.45309 1.04424 0.292978 7.96854 8.80365 0.678274 3.26886 4.1773 0.633792 3.28216 3.47614 0.399559 1.59111 4.34762 0.416353 1.57942 1.63062 4.77926 0.58049 1.31708 2.61281 4.48486 1.22163 2.47316 4.42216 2.82111 0.728188 3.86285 1.3592 4.16996 1.24901 0.901792 3.13349 1.05796 2.72471 3.27 0.370574 5.19831 5.92929 6.54277 1.13565 3.57334 0.248924 2.73749 2.14795 2.82111 3.61653 5.61963 0.686494 8.40555 0.644239 0.714088 3.03469 4.54314 0.490659 4.13473 3.27693 5.86959 2.46247 2.99922 2.78284 0.533575 7.26417 3.38123 1.69062 0.749088 2.46618 3.42439 0.732794 0.33634 9.52816 5.27042 2.73749 3.10097 0.732794 0.437014 7.431 2.86656 0.855212 2.89249 2.54173 1.99501 0.909586 0.329795 0.579036 6.6223 2.13651 2.00672 6.05854 0.594875 6.68473 3.79365 2.856 1.1412 3.46919 6.00925 3.35885 2.91746 0.342758 6.44281 1.00056 1.03611 4.02341 0.362584 3.21561 0.841451 2.79075 6.97331 1.89562 0.296357 5.67108 0.949821 0.798357 3.63768 3.28218 2.05653 3.3186 6.10084 5.36324 2.4278 3.20893 2.0516 5.14079 2.80923 4.10505 1.40608 3.67559 6.53387 7.03392 1.39108 2.92966 0.703965 0.936232 7.7266 0.597346 1.28708 2.68816 1.77228 6.93456 3.17238 0.495118 2.65552 4.18664 0.797516 5.18261 3.88896 10.5091 1.69062 2.60775 2.31648 3.07361 1.87191 0.275789 1.95647 2.4706 4.71719 0.352116 0.676679 0.617412 9.52816 2.84486 6.68752 5.23439 1.9255 0.538611 1.64567 6.89761 0.490659 1.49148 1.05194 5.15776 3.43282 1.06326 3.07084 0.212458 1.79501 5.67164 2.24184 7.04324 2.77887 6.25582 0.887795 5.04351 1.77226 0.600926 2.13876 0.417834 0.567732 4.95393 1.61249 4.10212 1.69372 7.69594 4.41443 4.17033 3.09005 4.65272 0.461108 2.67916 2.53177 0.283356 3.48951 3.35348 0.396804 9.98289 1.05365 4.68969 0.713064 2.31625 2.50221 1.16204 9.23965 1.48761 0.633792 4.88493 7.03339 9.52439 3.5364 4.57919 4.07723 1.58846 6.30703 2.42727 4.93319 2.60885 4.92044 0.340447 2.26073 4.33119 2.62173 4.68969 3.56737 1.30288 6.42145 1.13565 0.598328 9.79103 0.910508 0.670424 7.99957 0.887795 1.47325 1.31718 7.47153 1.48092 3.68099 4.9132 0.960544 0.89225 2.6695 2.0516 1.74824 2.59051 0.765526 7.27839 4.41101 5.54101 1.09271 1.63191 3.82474 1.05194 5.04197 2.34481 6.75068 2.80408 3.52122 1.11363 5.18261 4.16954 0.378824 2.93198 3.74734 3.75817 1.83153 3.83924 1.51684 5.82956 1.13943 7.96419 3.20056 3.36336 2.89207 0.908963 3.56025 1.39884 1.81707 2.6535 0.801626 5.14079 2.6695 1.39292 4.08071 5.19831 2.60166 8.99004 0.762528 1.14158 7.07191 3.07491 8.06155 0.713064 2.62173 1.12332 8.24715 0.866201 9.34322 4.00184 3.35885 3.10426 7.72116 2.12118 1.926 3.75749 2.45994 0.439197 8.25152 0.616635 7.32082 2.91983 3.1989 4.72916 0.369789 9.76593 2.97099 3.68661 2.15329 2.38177 1.59187 2.55308 4.24027 1.86962 0.598328 6.54277 4.40956 6.71403 3.48823 2.91983 1.99032 3.18888 1.33714 6.93456 3.72557 6.75068 3.40361 4.35977 0.970254 5.19195 6.05854 2.97276 4.12751 4.48486 2.21778 6.8861 1.19346 1.67488 7.23431 2.93896 3.56522 5.53074 0.502743 4.11853 3.18818 2.26651 0.791809 6.21539 4.22638 0.446712 3.88143 3.36573 5.14692 1.64567 7.39175 1.76816 2.53774 1.45286 4.45261 0.291932 0.361438 7.74941 0.945668 0.834518 1.76816 2.46532 6.33987 2.75451 0.385466 3.46973 0.499526 4.40956 0.944213 5.16974 1.45531 4.47674 6.46426 6.64209 0.698332 3.00165 1.74149 3.39152 2.55727 0.533492 6.30995 6.46513 6.81862 1.53107 0.557505 2.24184 0.125086 1.42215 6.79085 6.47353 4.44881 2.46618 7.73648 0.841451 3.65892 6.22827 0.230173 6.82056 1.15637 1.69379 1.59623 1.78446 4.42347 0.350658 3.263 4.44881 0.548593 1.68637 8.54621 0.211682 0.670424 5.40091 4.95393 10.6146 1.90475 3.98264 5.16974 2.34127 3.26276 1.12543 1.48092 0.475496 5.88805 0.717904 1.85389 3.91782 6.14607 0.370574 7.02477 3.47614 4.64466 0.734751 2.60166 1.63169 8.99004 0.734751 3.56134 0.695254 7.07191 1.82114 2.80408 3.72557 1.77228 4.83684 5.17603 0.432663 2.31279 0.257592 3.80931 3.74734 2.26682 0.362027 6.53847 0.791809 6.40271 0.141963 1.00854 4.3206 2.92966 3.38285 2.42727 2.79376 1.63449 1.39292 1.63169 1.14158 1.65188 5.22776 4.07388 6.39939 3.63233 0.717332 2.02668 0.765688 3.63463 8.82543 3.00651 1.69379 3.55177 0.908963 7.27839 2.37086 1.81755 3.92735 1.17576 1.10625 0.965864 5.91088 2.02232 3.39102 7.19321 3.14013 6.40986 0.765688 2.78656 2.81962 0.417834 0.214787 2.68053 1.32628 6.99107 0.364382 3.27749 1.51345 5.96984 0.239982 1.50406 0.527724 4.71974 2.59051 3.96191 5.07799 1.75191 6.26599 4.03453 0.59372 10.0399 4.96828 4.45743 1.50561 6.86901 0.670159 5.17124 6.39983 0.212458 3.99366 2.2903 1.65078 9.78364 0.2941 0.137918 4.91791 6.47656 0.430044 8.65684 0.901792 0.861716 4.39961 2.7168 3.61793 2.61906 3.25558 1.90604 2.41959 0.142167 7.21848 1.05709 2.36092 3.33987 4.1058 0.424936 5.52067 0.861525 10.2012 0.595879 4.11853 5.03956 4.15879 3.24677 0.361617 5.14692 1.31412 1.64429 1.75191 0.197588 2.78284 0.356435 3.21964 6.16617 0.124598 4.1556 0.805263 2.94933 3.19925 5.25967 2.06775 7.83435 4.40808 4.58539 4.38953 2.24911 0.37943 0.939512 3.83155 0.437014 5.33315 8.04849 0.519193 4.30183 0.325609 2.90624 1.23715 2.32334 6.39939 1.63422 6.08343 0.396582 1.74149 1.19052 4.66664 1.32219 0.197588 10.0399 5.21789 3.12801 0.367769 3.27693 1.92641 5.36324 3.18555 1.69455 8.51423 2.91746 4.00184 3.04965 0.399006 2.56802 11.1999 2.68436 1.05709 2.73598 3.08171 2.06775 0.231021 8.27742 1.87375 0.88426 3.11969 2.78753 3.38998 0.705093 6.20058 2.6535 7.92079 1.73843 4.58554 1.56603 2.08088 0.668001 3.35348 7.9357 1.82431 9.78364 2.24911 2.37166 2.40039 0.595169 1.77689 7.16805 1.58741 6.86901 0.308603 0.484141 4.91791 3.81843 1.33553 3.42604 3.15617 7.33914 3.72189 4.00675 2.06002 0.934019 4.76579 4.71049 0.93108 5.4406 4.84187 1.59111 3.79863 2.32406 0.431677 3.10426 6.00925 7.19387 0.122795 9.69186 1.28532 5.50258 3.81319 0.527724 1.78205 1.833 8.04849 0.858053 0.705093 1.37182 6.3863 0.732764 2.46032 3.71711 2.75451 3.98264 7.47153 2.53774 0.834518 4.87993 0.562611 3.62966 5.81455 0.499526 4.24716 4.52371 2.19271 2.46473 6.71403 0.824925 5.69721 2.34127 0.944213 1.99032 7.32082 4.45261 3.91264 4.13473 6.89761 1.68775 4.07723 0.430628 1.8653 0.519193 4.07388 6.40986 7.60738 7.91639 0.772461 3.9503 4.58554 3.03217 3.88143 7.00643 0.275789 6.66942 3.65892 3.21561 10.5114 0.631288 5.08188 2.34851 3.56025 1.17576 4.07331 5.4221 5.43254 0.885801 10.2885 2.80923 0.801626 2.08088 5.94316 2.3667 6.85859 2.856 6.3433 2.30603 4.78242 1.39537 2.33691 1.9938 7.48764 0.728188 2.14795 5.27042 0.617412 2.24522 0.439197 7.15063 2.89249 7.55275 1.88357 4.10505 6.85859 0.648456 1.37182 3.38998 2.57388 6.02316 7.09753 1.81462 3.57517 0.337937 4.85748 1.39884 2.34851 3.09375 6.67407 0.666432 2.13598 5.57236 3.86953 7.09753 1.52601 0.556087 4.66664 5.33677 9.48694 2.06561 7.02735 0.925923 0.600187 4.68596 1.42215 3.263 1.69604 2.54982 1.14274 3.77903 1.09271 0.292769 10.0531 4.54314 5.35039 1.71985 4.41101 1.49148 1.23161 6.14277 3.11969 1.819 3.59782 3.39158 0.915162 0.97059 0.65757 7.55275 0.855212 1.65543 0.525097 10.0484 5.67652 6.20058 0.858053 5.33315 0.329795 3.87955 0.742976 3.56522 1.50441 0.663842 1.26475 4.58539 1.06326 2.19581 2.4278 1.92641 1.66214 2.46532 7.39175 1.97733 7.19387 1.03611 0.878463 3.99366 3.07084 3.68666 0.424936 4.78409 1.08194 3.30365 2.06002 1.73916 3.83155 3.53099 4.15402 7.431 0.784145 10.2885 3.27629 8.97222 2.75768 8.4205 1.0959 0.883572 8.97222 1.09197 0.122795 2.8688 2.47269 1.04234 1.63062 3.45152 5.4406 2.32864 8.27742 2.08227 2.80781 3.62966 1.14887 1.11711 5.04458 2.19398 2.99155 0.631288 5.29892 3.8414 2.97099 0.371588 5.13426 3.99321 4.09588 6.76119 0.628348 1.72456 3.17591 2.47743 3.10097 5.61963 0.812062 1.56266 1.50947 4.67615 0.533575 1.09197 3.27629 0.885801 2.10531 0.549115 3.53572 9.69186 4.14714 5.48222 1.94827 2.35375 2.94933 6.17001 8.06155 0.532623 1.52524 2.6133 5.04351 7.99957 0.211682 6.65114 3.74341 4.37382 3.13349 8.65684 0.381515 3.43695 5.08297 2.79376 4.33119 2.15987 2.25857 6.3976 2.47269 3.38506 2.99495 0.479186 4.93319 5.22776 2.37641 5.0055 0.874924 2.82536 8.6895 1.54469 3.08521 6.53387 0.262176 8.80365 0.982845 0.558195 3.18888 2.34481 6.36561 0.570697 5.9257 3.24677 4.35003 1.1412 2.33691 1.90604 6.8813 3.72189 1.44896 0.925923 4.26703 2.61281 5.89081 2.85158 0.369789 0.567473 2.61278 2.21778 0.325609 1.29359 4.31293 4.87043 0.283356 7.31229 8.79276 2.21575 9.52439 0.802915 3.53504 1.12542 4.12701 4.5216 3.37539 2.78656 2.02668 1.705 6.30703 2.65721 5.45785 1.53187 2.33221 3.21671 5.82956 1.90593 3.07047 2.7321 0.798357 6.42394 5.96984 0.926078 6.8032 2.90624 7.31229 2.53177 2.65727 2.94994 2.864 1.98212 1.78868 4.92044 5.24175 5.12889 6.3863 0.648456 2.3667 4.14653 2.24271 2.93896 4.24366 8.07518 1.05846 2.7212 1.50441 4.51439 0.378824 0.393501 1.76801 3.56961 6.08343 4.39011 1.73916 4.00675 1.92806 2.3002 7.54805 4.86196 0.861716 1.24901 4.08071 1.63449 5.08297 0.595595 4.56755 0.680418 1.5141 6.90324 4.5216 0.557134 5.69466 1.68643 4.92247 2.12118 0.637411 3.19676 3.03469 0.548711 3.57517 2.65607 2.30264 5.35039 0.46871 3.03246 2.04195 3.58258 1.77689 9.66479 1.04424 3.55266 1.20226 0.479186 5.84264 7.11674 3.56874 5.89806 2.43063 2.20077 1.9938 3.56961 5.81144 3.53038 3.39152 0.396582 4.47246 2.19398 3.37243 8.35538 0.65855 7.04579 1.49697 0.141963 1.26134 5.57236 2.45835 2.19271 4.87891 3.94611 4.45738 0.772461 0.800857 2.6133 6.49605 1.78355 4.08625 2.84486 0.620032 3.55177 1.15637 5.3927 5.91088 4.54368 0.430817 8.85259 0.976029 2.03864 7.37443 2.04195 1.75964 4.47674 3.88157 5.03956 0.502743 4.53035 2.65727 2.67916 5.93675 0.253146 7.32305 1.00183 8.29855 4.87993 0.945668 5.5249 1.0809 2.4706 5.25147 2.13876 6.82938 4.9292 2.41959 4.26703 7.02735 5.18435 6.82938 0.600926 3.86898 0.680418 3.5724 6.14607 3.64281 0.97059 2.68996 0.473938 3.56134 4.64466 3.28216 1.48761 2.21575 7.38075 0.233988 9.34472 1.79674 3.18555 6.10084 2.72471 7.95678 3.38506 2.8688 0.93108 3.94461 2.45835 2.13598 4.54094 2.67766 1.66145 7.47304 0.797516 4.86956 1.89562 4.61472 0.393501 4.16954 3.17238 1.11363 3.80931 3.46643 2.89207 3.63132 2.72429 2.99922 5.86972 3.46919 4.35003 0.356435 5.70149 6.30995 0.440744 5.31004 2.26682 2.93198 4.51439 1.63422 6.74159 0.90804 5.6283 1.14274 2.91433 1.67488 0.920262 0.300189 2.749 0.676679 9.24708 1.12542 0.717332 3.47596 3.56874 2.24522 1.35798 3.21105 8.76025 0.454046 8.82543 1.13092 3.99881 4.82763 3.78104 3.84788 1.3405 3.09005 0.892417 4.34762 4.84187 3.45152 1.22163 4.12751 3.94022 1.00056 6.11459 2.58922 4.65654 2.2903 0.878463 0.990792 2.03864 3.11724 1.8932 5.48822 3.87955 4.40808 1.13526 0.551569 0.411371 3.51533 3.71878 4.31293 3.60484 3.90508 1.01757 4.03546 0.977048 5.06815 1.18968 5.48222 0.367769 3.77557 3.56737 1.05365 0.875353 2.16196 5.86959 1.52339 4.2571 2.7758 1.79673 3.17983 6.99107 0.342758 11.1999 0.571569 3.17591 4.50068 5.13426 0.418434 0.383994 0.257592 8.77547 0.340447 1.78868 5.10762 1.13943 3.46643 0.184461 4.03453 4.30863 3.88253 0.440744 0.533492 8.18154 4.3206 7.12445 1.85198 1.85074 2.55929 2.82536 0.703965 3.10903 5.45734 0.2941 1.82431 2.49452 3.51533 2.62113 5.23439 0.57837 2.31982 3.47273 7.7266 1.7328 8.54621 2.27117 1.59187 5.92929 4.09836 4.52074 3.37341 5.68111 4.52371 0.668138 1.13092 4.02857 1.0043 4.87891 2.47863 0.147874 0.233988 3.3186 3.75631 0.237409 6.6223 3.33284 3.99321 4.50068 1.72456 2.41724 1.45286 5.81455 2.80781 2.89284 0.686494 3.91264 1.79673 5.72918 2.48105 2.8898 3.96748 0.793424 10.0531 2.63247 10.2012 1.86501 4.30863 6.26599 1.64429 7.33507 1.00176 8.15946 2.45031 0.58049 5.43755 2.25857 1.20226 0.714088 8.5097 0.283477 4.54094 0.666432 6.02316 0.548711 1.10273 5.31004 3.88253 1.86501 1.14433 1.65973 6.46513 1.53187 2.52626 2.40039 3.36859 0.120132 6.93857 6.8861 2.61278 4.55573 7.35116 5.52198 1.63191 3.77903 5.6283 1.52524 1.15847 3.53504 1.53556 2.54621 6.49605 0.830667 9.29013 2.86127 3.83924 5.99729 2.68996 10.0484 0.566491 0.548593 6.47353 2.35759 1.00704 8.84672 0.982631 0.239982 6.42394 2.12365 4.35977 2.7321 5.58839 5.21789 0.59372 0.184461 1.68378 3.63768 1.86962 2.168 3.39102 1.90987 2.7354 9.79103 2.35462 6.36561 5.04197 0.744199 3.33987 0.796448 6.83169 2.68053 4.84186 3.62768 0.46871 1.819 0.88426 3.52681 3.32625 1.05014 3.75749 6.9873 2.89284 2.08227 0.231021 5.25967 2.60046 8.40555 3.75631 3.20893 2.19581 3.43282 1.23843 6.18215 0.885392 8.10538 2.67959 2.04572 0.830667 0.83501 4.52074 1.31708 2.45031 1.17927 2.58922 0.308596 3.68352 5.89081 3.36859 2.37166 4.38953 1.26475 9.06945 1.66214 8.51423 1.64152 1.80627 6.33987 0.713113 5.93675 0.461108 3.9246 1.31789 1.37407 8.48497 5.44187 2.08695 3.81843 0.137918 5.45734 0.538611 7.61784 0.609514 2.37641 1.65188 0.762528 6.17001 0.620032 4.18664 1.83311 5.76427 0.296357 4.86956 0.583741 5.68111 5.56724 0.603627 1.50906 2.84304 5.10762 1.98212 1.83035 1.00183 0.355526 7.96419 1.8932 8.22384 8.84672 1.61396 0.186264 2.7758 2.78727 4.24801 0.946084 5.72918 0.37943 7.16805 3.58258 7.37443 0.9907