<VTKFile type="UnstructuredGrid" version="0.1">
<UnstructuredGrid>
<Piece  NumberOfPoints="    3304" NumberOfCells="    2425">
<Points>
<DataArray type="Float64" NumberOfComponents="3" format="ascii">
-29.5702 35.7257 0 
9.0316 8.57067 0 
52.1899 -6.47224 0 
18.3754 -29.726 0 
-28.2822 50.0803 0 
-38.9818 17.9338 0 
8.79992 -44.6451 0 
-57.9851 -13.0025 0 
0.027343 -53.8157 0 
1.49722 -28.0147 0 
-58.7673 15.5013 0 
49.3662 -23.4827 0 
-14.8018 42.6541 0 
49.9345 -31.2204 0 
14.2725 14.0617 0 
-11.062 -44.0354 0 
-21.5873 18.9363 0 
-52.2383 32.2676 0 
-30.74 -39.7589 0 
32.8119 -19.765 0 
-4.27397 29.0313 0 
41.6853 -22.1859 0 
28.0998 -0.792115 0 
5.91227 0.594194 0 
1.10308 -32.4031 0 
57.0905 -10.6683 0 
-27.1029 -33.8726 0 
-44.0728 34.9179 0 
-58.6491 16.2559 0 
-60.4582 -9.97451 0 
27.8634 52.2289 0 
46.5235 23.8376 0 
-22.7786 34.2408 0 
-30.5066 -2.10297 0 
-29.7973 -14.8092 0 
-12.451 -43.7377 0 
-14.3661 37.2115 0 
-9.49713 52.3562 0 
-6.43126 4.42914 0 
11.2111 -48.8598 0 
40.9611 36.6108 0 
-52.1897 -3.92631 0 
-0.267953 -10.7018 0 
50.9775 16.5963 0 
18.5392 50.8393 0 
-28.6732 43.5757 0 
-13.2365 -1 0 
-28.8415 34.6194 0 
6.04472 22.2412 0 
-4.6078 -45.1702 0 
42.19 -37.0004 0 
-0.841501 -32.6419 0 
-26.4425 -9.69195 0 
20.9817 1.95323 0 
-26.5159 -25.1124 0 
-45.8876 7.28278 0 
-10.6023 -54.8869 0 
39.3951 -42.5155 0 
14.286 -28.3057 0 
18.316 57.0763 0 
-27.7338 34.5721 0 
-36.7239 0.455795 0 
-5.4439 -45.4643 0 
43.4446 -27.8489 0 
52.3553 10.1839 0 
9.7183 60.1698 0 
25.6285 32.6886 0 
-25.0881 -39.4734 0 
25.1723 -18.4464 0 
-34.0525 42.7566 0 
15.4568 -4.08509 0 
-18.2135 39.0235 0 
43.8853 -45.0869 0 
36.8885 -13.8833 0 
19.1804 2.67111 0 
-50.3072 -21.7008 0 
25.9327 -28.5381 0 
-33.5559 -34.0126 0 
27.6374 -49.4216 0 
-11.96 52.6638 0 
-35.9826 0.0657969 0 
32.3753 -41.0631 0 
-10.7295 -11.2603 0 
-14.6541 -44.7599 0 
56.9325 28.0508 0 
0.302162 27.9075 0 
32.2775 11.2691 0 
-0.968516 61.3054 0 
-49.3518 9.55891 0 
-39.9904 -10.1293 0 
2.07151 -51.384 0 
-30.5838 -30.2927 0 
25.4765 34.4241 0 
7.28889 13.6205 0 
31.4664 -41.8041 0 
24.8064 23.0057 0 
32.3072 -2.45794 0 
-23.1986 43.2296 0 
41.2287 18.398 0 
12.2923 -37.8331 0 
-45.0145 -36.9171 0 
-54.2764 23.4528 0 
53.5742 13.6983 0 
-16.5253 -4.7378 0 
34.4463 -3.903 0 
-15.1655 -0.9789 0 
-18.6725 -40.1056 0 
33.3661 -2.88066 0 
18.707 -33.2599 0 
-57.855 9.62482 0 
7.40576 -45.4905 0 
-18.7284 13.4506 0 
-40.595 31.1548 0 
26.721 43.903 0 
52.31 -21.6132 0 
39.0569 -44.6249 0 
-34.3692 -31.3755 0 
7.90329 -26.6918 0 
-5.66941 -24.754 0 
41.8781 -5.41561 0 
33.7296 8.18127 0 
7.41199 -0.900012 0 
-26.7215 13.3574 0 
-0.427683 13.5929 0 
26.7324 -30.7767 0 
-37.6096 -38.8908 0 
-16.8167 -23.0714 0 
19.4175 11.9612 0 
-46.9915 -16.6917 0 
9.866 -58.1267 0 
23.1904 -42.2777 0 
-24.3364 -2.05393 0 
-48.0936 -35.0956 0 
-13.6595 -19.8169 0 
40.8375 -23.7428 0 
-51.471 -18.7361 0 
36.2646 -6.30809 0 
37.38 -31.1898 0 
-52.5339 -8.82208 0 
-29.0637 49.5318 0 
-58.6216 4.30255 0 
46.2837 -21.0921 0 
12.5224 25.3023 0 
-6.11936 17.9636 0 
-36.201 7.71785 0 
3.57332 35.2846 0 
21.2168 43.102 0 
25.3398 -28.4221 0 
46.6049 24.846 0 
14.4499 46.2394 0 
58.1417 -3.46433 0 
43.8993 13.5001 0 
-29.7153 -2.46592 0 
-24.8835 50.6566 0 
31.0449 -36.2936 0 
24.1937 39.6412 0 
9.5394 21.2324 0 
21.3526 13.6297 0 
-62.167 -10.5003 0 
8.81243 39.2396 0 
-24.5643 -4.13879 0 
-14.3623 -16.0757 0 
-35.7794 -19.011 0 
-49.753 40.1109 0 
38.7839 10.8631 0 
24.5992 -8.0678 0 
27.1723 36.6304 0 
18.8168 -19.9235 0 
-4.21516 57.3403 0 
-18.8257 -27.7432 0 
28.7047 8.27205 0 
-16.6167 59.4976 0 
-38.0476 16.1458 0 
57.2642 14.3389 0 
6.3201 -9.31319 0 
-32.0318 43.6367 0 
-15.1559 28.059 0 
-29.7264 3.82344 0 
25.9944 32.1816 0 
15.499 -9.06474 0 
9.8874 58.0951 0 
-45.1851 -22.4264 0 
-50.4201 24.4965 0 
-3.47125 -55.8546 0 
-12.2479 20.9561 0 
50.561 -30.4796 0 
-40.3362 11.0692 0 
11.9798 32.2471 0 
10.9669 -10.6482 0 
-30.4058 -13.9476 0 
53.9612 -0.0258409 0 
-58.2308 16.6712 0 
-44.0936 15.4811 0 
-42.5914 -4.7869 0 
-29.0972 5.8674 0 
33.1971 -20.1112 0 
44.5844 40.4605 0 
-20.9125 11.3745 0 
3.59002 6.46185 0 
-18.8849 45.3129 0 
49.4974 -27.9145 0 
32.6983 -2.82252 0 
-16.4229 12.2179 0 
-24.1414 50.4054 0 
-14.2827 -34.826 0 
-1.31421 16.2783 0 
27.7751 -27.5632 0 
-15.2472 39.3517 0 
-2.03485 -5.59573 0 
-40.5685 20.1631 0 
-52.1766 2.75087 0 
56.9408 14.1164 0 
49.8419 38.8111 0 
1.19452 52.401 0 
7.01194 27.6721 0 
-24.7015 -50.7332 0 
-35.7837 30.9275 0 
-4.2627 44.5172 0 
41.899 -1.23925 0 
-5.25647 28.9046 0 
-15.0847 21.0121 0 
-29.175 4.2221 0 
-9.07583 41.6408 0 
22.3739 -60.8054 0 
13.2857 27.3586 0 
20.0799 -35.336 0 
14.5782 -54.8657 0 
-4.2903 56.1277 0 
45.7151 -35.6775 0 
43.0471 -45.3531 0 
-56.6588 -26.1192 0 
17.7908 -2.59824 0 
-32.8737 25.473 0 
-3.04544 -56.4384 0 
-59.2976 -22.5143 0 
21.8477 -42.5476 0 
-52.3594 -13.5408 0 
-9.46929 7.02697 0 
-26.5559 12.3664 0 
-22.6945 -18.5183 0 
-42.0286 -6.45535 0 
-2.10248 23.2832 0 
-20.5088 -7.54556 0 
-42.3673 -2.04375 0 
24.2743 -12.2413 0 
-35.2221 16.8699 0 
2.04051 13.9835 0 
-5.52636 -23.6025 0 
-10.3915 19.908 0 
13.6184 53.948 0 
-11.0446 -48.7 0 
18.3606 -22.2293 0 
-39.441 -19.6942 0 
29.0911 -11.6529 0 
7.57647 -22.1081 0 
39.3338 -41.7654 0 
-32.3076 -7.02356 0 
10.9949 -33.5597 0 
28.9318 -2.36446 0 
15.9961 -53.9895 0 
-22.8673 -35.0746 0 
-39.9623 -29.17 0 
-28.5613 17.6801 0 
43.5195 -35.8694 0 
3.41156 -17.9516 0 
49.5859 34.1642 0 
-10.1705 9.70339 0 
0.457984 46.497 0 
13.296 -44.2124 0 
30.125 -15.1886 0 
-13.9076 29.0851 0 
-18.5206 -28.3639 0 
-26.4589 -41.1878 0 
43.8756 22.2159 0 
17.3617 9.97905 0 
32.1119 31.8141 0 
57.8829 17.6749 0 
-27.2386 22.3605 0 
-20.7036 -43.0235 0 
-6.48024 -5.23328 0 
10.9876 39.9231 0 
-38.2827 0.384515 0 
-11.4001 44.6689 0 
39.3745 35.4771 0 
0.18154 -49.1631 0 
32.2659 38.2059 0 
-8.17132 42.1486 0 
-37.4674 43.8464 0 
-49.6463 40.611 0 
42.6314 6.5053 0 
-32.9416 -14.1736 0 
-5.10081 -26.8636 0 
-3.36619 18.4913 0 
-55.2308 -26.7618 0 
51.5153 7.07722 0 
44.95 -8.94883 0 
-11.3936 -28.3471 0 
-1.0717 27.0206 0 
-60.4003 -19.8735 0 
-5.71762 -30.2132 0 
10.5881 47.8048 0 
7.80804 21.4747 0 
56.0168 -14.4628 0 
-7.41819 47.1613 0 
4.1829 44.1593 0 
-49.6093 22.0754 0 
8.42575 33.1185 0 
1.68747 14.2768 0 
35.5065 23.4254 0 
22.6578 25.929 0 
-11.1291 -65.1193 0 
-9.60921 35.8919 0 
-45.6388 3.91394 0 
-43.9657 -37.766 0 
15.5102 -5.00123 0 
36.3121 49.9911 0 
-17.2627 12.7214 0 
-5.77165 -13.8352 0 
-51.3414 24.6314 0 
36.8069 -35.918 0 
24.652 -22.651 0 
30.7405 -6.76075 0 
-4.02811 42.1989 0 
23.6452 1.66569 0 
47.3175 32.9968 0 
-36.4975 35.5449 0 
57.0423 -11.2684 0 
6.80598 -21.8458 0 
-38.8894 42.2146 0 
-25.2127 0.289407 0 
16.7618 -11.4979 0 
-37.0031 -31.0933 0 
-39.3326 -30.546 0 
-24.9129 -25.795 0 
18.5886 26.3691 0 
18.2248 -18.8803 0 
-46.8569 -31.4587 0 
-45.6837 28.845 0 
-42.2452 -6.18712 0 
-19.0499 15.8502 0 
-42.2841 26.7097 0 
-29.7877 -28.4435 0 
20.8758 -38.4999 0 
42.9217 6.88324 0 
41.5456 29.6091 0 
-18.0138 54.3954 0 
-1.92537 17.7283 0 
-53.7357 -6.82219 0 
-9.12358 5.63148 0 
-19.3032 -48.3444 0 
-29.7168 33.7123 0 
-13.5035 -35.029 0 
-15.41 5.43077 0 
25.3312 -49.9522 0 
6.67706 -11.5068 0 
-19.4883 33.3175 0 
-40.7125 22.044 0 
38.0065 -31.1845 0 
-44.9192 13.2436 0 
-37.3179 43.3725 0 
49.6802 -25.9312 0 
-8.35041 -44.1008 0 
-42.4575 37.1811 0 
-19.6706 6.37458 0 
-36.7457 -42.8192 0 
-44.7756 -45.0771 0 
-8.7725 35.0278 0 
42.6576 27.6465 0 
49.1942 17.6061 0 
0.279603 -0.603016 0 
-1.41874 -18.9737 0 
-18.8826 -45.7967 0 
-59.4878 -1.54448 0 
19.8049 52.2182 0 
3.09804 -18.5854 0 
-33.9173 -32.2814 0 
30.7384 -34.9894 0 
0.296379 -32.7901 0 
-10.7588 10.961 0 
3.31569 -5.25837 0 
-56.7647 7.86971 0 
-24.8552 24.0458 0 
56.8401 5.80889 0 
8.89789 52.807 0 
-14.5747 -51.7753 0 
-27.0277 15.1126 0 
35.9096 22.3949 0 
53.6114 20.461 0 
-8.63983 30.6295 0 
-27.3985 33.404 0 
50.9794 -14.2669 0 
-5.35555 3.64359 0 
18.4652 -60.5751 0 
48.4186 -1.21533 0 
15.8105 -7.97522 0 
-35.3053 1.84498 0 
-45.5075 -23.1796 0 
-29.4342 -18.0922 0 
-10.4652 29.7276 0 
40.4848 -39.8198 0 
34.2869 -24.7238 0 
-15.6583 -22.4957 0 
43.5553 -20.2799 0 
-48.4562 16.0567 0 
12.8922 60.1575 0 
-45.8214 0.346063 0 
27.6168 36.7991 0 
-21.7343 11.2069 0 
-5.57266 -37.0459 0 
10.4402 19.6071 0 
6.96315 59.3836 0 
32.5653 23.8901 0 
26.698 17.1645 0 
-60.8986 -2.91781 0 
-33.3966 -47.5111 0 
31.2363 53.6327 0 
-5.91611 0.513783 0 
-0.565533 8.5202 0 
-40.8004 -7.36768 0 
34.3554 -30.2077 0 
30.7734 48.1646 0 
18.4941 32.205 0 
-38.2093 -31.3423 0 
57.4953 -25.2148 0 
39.8109 17.0235 0 
-58.4602 -13.3155 0 
-35.7077 -22.5881 0 
56.766 -12.3884 0 
-33.3432 26.4004 0 
6.92276 13.3031 0 
16.4809 -26.2293 0 
30.8214 29.1453 0 
-39.1207 12.496 0 
59.3581 12.8077 0 
-19.2123 -0.874077 0 
-53.311 -8.02282 0 
-39.4385 -37.0345 0 
5.7231 -6.43279 0 
-19.1507 29.3486 0 
37.8713 0.749565 0 
-10.8207 -17.0813 0 
45.2312 4.00536 0 
24.2407 -49.8146 0 
39.6631 7.51131 0 
-34.3475 31.2075 0 
-22.574 -19.1857 0 
-58.8224 -22.9787 0 
-23.8617 -21.7657 0 
-23.853 49.4333 0 
-44.2192 -38.5095 0 
44.0091 -35.9591 0 
43.5177 -6.00696 0 
-19.8653 39.1741 0 
2.01931 34.4818 0 
-11.6442 -43.6647 0 
-33.5895 -53.9345 0 
-35.0659 -49.6631 0 
12.1784 -18.3729 0 
-12.2667 58.0642 0 
17.0646 9.04936 0 
-43.3758 36.6881 0 
-23.4842 -17.9225 0 
31.3205 38.7258 0 
-21.2119 27.6147 0 
-39.6222 12.1655 0 
11.0114 -21.1991 0 
-33.3814 42.7063 0 
30.2434 38.1813 0 
15.0842 -54.8282 0 
48.7994 18.1929 0 
-27.1522 -9.91639 0 
6.84155 -46.1834 0 
-34.4213 -53.215 0 
28.2852 -48.405 0 
-12.0178 -52.9087 0 
-8.26808 -17.9317 0 
-0.576489 -19.6134 0 
34.7052 -23.9456 0 
13.7635 -15.5406 0 
3.47851 20.8356 0 
12.2124 31.9371 0 
-16.6769 44.7489 0 
12.0586 -17.8964 0 
-9.17689 -5.40498 0 
9.86934 -43.0821 0 
-7.01473 -4.94554 0 
-12.4384 -39.7582 0 
24.8209 -7.03336 0 
4.56464 -12.0998 0 
-6.95621 -22.7294 0 
19.8091 1.844 0 
31.5023 -37.2833 0 
-3.39469 29.0011 0 
[...]
<CellData Scalars="wall variable 0">
<DataArray type="Float64" Name="wall length" format="ascii">
0.82501 6.01298 1.74175 4.51243 5.31906 0.606136 5.84641 0.950075 5.61998 0.73707 11.2801 2.83458 6.82021 1.40708 0.996812 5.68114 2.17279 9.99603 1.87275 0.347924 9.71062 1.09664 1.35668 5.60237 3.6846 2.24109 2.62057 3.80379 2.05105 5.63152 4.31334 5.61066 0.72906 2.72577 4.60681 3.47885 0.398648 0.65297 7.14372 2.50885 5.52891 2.99563 4.62037 1.94814 5.33272 2.46791 4.86626 5.26912 0.486805 1.21442 5.24878 0.837073 5.2598 9.86558 2.59607 7.96722 0.260112 9.14971 2.57499 4.24185 1.45404 2.36655 2.42185 0.131028 7.10873 3.07389 1.16084 2.59607 1.3228 3.80863 0.679075 4.62101 0.483402 1.78629 1.15112 3.88804 4.1165 1.52422 6.23229 3.71403 0.420846 2.67436 5.02408 0.823326 0.335642 5.90003 3.27528 1.33804 6.24099 2.65303 0.679075 7.67952 0.744386 5.86334 1.44806 2.52079 2.65803 2.33439 1.13534 7.35738 2.80802 3.03955 5.86156 4.24326 4.34924 2.54261 1.23701 0.522352 3.71403 4.49605 1.00142 3.65753 2.47835 1.18843 1.88486 8.57072 0.254498 0.341949 0.443383 2.31085 1.62759 3.51362 1.16653 8.70415 0.158919 2.26138 5.38341 1.55401 1.29078 9.2228 1.84474 7.31141 0.878564 4.02722 6.00627 3.01198 3.27235 3.94851 0.879504 1.79425 0.752701 7.21663 5.24878 7.40263 1.89692 4.41741 1.58987 2.36375 2.9287 2.61476 6.00433 7.17761 0.900663 6.41963 0.74632 1.43369 2.23084 9.12214 0.510115 0.657874 4.93802 1.66671 4.24946 7.97211 1.03338 5.9939 0.537783 3.22846 2.33812 7.76657 1.08093 8.68772 0.493408 0.615463 2.08829 6.68976 2.38272 0.917903 1.54417 6.30481 2.98902 3.38693 3.82668 2.44202 1.39714 6.53388 0.796199 10.4561 1.36432 8.27736 0.36674 3.92269 0.381674 3.34478 2.31564 1.45467 1.90371 10.4561 1.37422 1.23888 8.65505 0.550461 0.857963 3.87972 1.65894 4.24343 7.8968 0.548275 8.45329 6.39584 2.47835 2.20146 1.10309 0.663537 6.53388 5.77955 5.47131 2.15276 9.03572 0.168871 4.64342 3.49488 0.337109 1.55339 2.64701 6.24099 2.93556 1.07988 7.29357 1.18884 3.22846 5.10809 3.13705 7.24182 3.51362 1.88443 3.22338 4.34956 6.00312 4.99342 1.43369 0.99532 8.13525 4.16727 0.153583 10.9132 1.59517 3.89192 7.12761 2.38272 1.06526 4.92936 4.32249 2.57814 2.80715 3.03135 6.31847 0.983608 5.81569 1.66675 8.90499 3.58495 5.41098 0.663081 1.93135 2.31367 1.77643 5.544 0.574473 10.637 0.719371 0.887255 0.643273 8.29034 1.61068 6.01711 5.02848 0.801743 5.34175 1.36908 1.95521 5.2668 0.735003 6.85176 4.99972 1.40708 3.72143 2.61614 4.35797 2.50885 0.395507 5.28397 4.59136 2.33768 3.89746 0.199859 1.76911 6.9423 2.18171 3.38693 1.03549 2.4931 2.89856 8.32902 0.693384 5.75156 4.96979 1.52902 0.191366 4.46269 3.24208 5.63049 3.73818 3.28686 2.65803 1.12791 3.20809 1.24972 1.21035 2.36721 3.97152 2.44431 5.99809 1.65156 6.51728 3.80383 1.8931 4.85117 0.670855 4.63666 4.35256 1.87015 2.07593 3.50059 0.826257 3.6411 8.31328 0.777211 1.29958 0.192661 1.12041 7.01644 5.41173 4.4627 2.45641 8.29034 5.31808 6.29492 1.0189 1.20006 0.948491 3.95569 4.49605 5.90003 3.00854 0.762606 2.77176 0.778167 0.781263 3.36761 6.64282 1.52715 2.94653 8.45329 3.68786 4.57372 2.16878 6.97114 1.29458 1.30813 2.22338 7.01615 1.115 9.99603 3.89746 5.19888 5.71409 2.60701 0.568133 5.5597 0.72906 4.31556 0.727675 1.97001 4.69728 2.66864 6.06137 0.252071 2.04592 3.69413 1.33944 1.56192 2.07593 9.98527 1.20006 10.0505 0.231485 1.13534 8.90052 1.84674 1.95521 0.613795 7.58865 0.845732 5.24734 2.61282 4.33022 5.2028 0.892229 5.3372 1.5535 0.396174 5.17153 4.55264 4.64408 3.33644 3.55004 1.28787 6.70561 1.23701 7.51325 3.66885 4.31936 4.89429 2.64366 1.18131 0.391534 1.40559 5.03267 6.43813 1.84674 1.12512 7.72726 0.392166 5.33458 5.2668 0.855941 7.51339 1.21035 3.47806 7.77081 3.04444 1.8931 1.59991 2.1087 2.6724 6.10836 4.53721 4.05779 5.20541 3.36726 3.05198 0.392166 0.179473 4.31936 1.43262 1.34366 2.47876 2.3685 5.6081 2.42185 5.61509 4.31415 4.90253 2.4993 2.38615 4.52292 0.701943 6.6889 0.932247 7.79535 1.86997 2.69225 2.18156 2.96598 1.32555 6.89579 5.07262 5.06428 0.568133 4.31334 0.477803 5.95452 0.321761 1.78878 3.14733 1.65624 5.17144 2.64366 3.09629 4.15676 7.22059 0.388088 0.153583 6.68976 3.47008 9.43924 1.6508 7.02961 0.914579 0.471563 3.41489 2.05105 1.2807 1.35668 0.412507 6.33169 0.616686 5.41173 0.643273 6.55432 2.65401 3.92269 5.25552 7.87333 0.974259 7.77081 2.22552 3.33644 2.8408 3.70579 0.398152 3.9743 5.03778 4.64342 2.32625 2.14086 2.4517 6.16738 2.85395 3.95251 6.0219 0.663081 8.721 1.40313 10.113 0.337109 3.83531 1.00531 0.586372 2.42669 3.97708 3.80786 5.86334 3.04444 1.60063 7.33964 2.11194 4.85117 0.741658 6.94552 2.58291 0.293444 0.735003 5.33458 3.05198 2.69821 0.534273 7.22059 0.473444 4.87738 0.676374 4.51243 1.15112 4.9138 1.5355 1.34065 2.12571 6.74038 0.591314 4.59444 0.848444 0.513419 2.92846 0.396174 1.74488 7.79535 5.61998 6.5684 6.24872 0.562769 6.70561 2.90107 1.63335 3.55409 0.603734 0.438833 3.93908 4.12609 1.52422 0.640557 5.72337 0.613488 7.80663 3.6846 3.96515 4.55442 7.3845 0.918635 7.24182 1.52913 3.27399 4.87738 1.08855 2.82101 6.45618 2.37667 0.522477 0.815125 6.09167 2.42358 1.07776 0.727675 0.90889 4.59158 0.510132 6.64724 4.92247 6.1623 0.346688 2.82101 0.830267 2.0174 0.839127 0.631974 2.77055 0.763922 5.49253 2.81159 6.9198 5.34175 4.9312 0.497103 2.85531 6.00627 0.476634 0.719371 2.36294 7.8624 0.823326 2.0001 5.31808 2.18237 2.3679 6.56907 5.46652 4.60681 5.97567 4.47188 0.568519 8.89601 0.529645 6.01384 0.950462 0.821395 5.94591 3.79775 0.370526 7.91948 0.808019 4.06704 0.660669 2.2892 1.55401 3.28494 8.01913 1.92427 3.63986 2.69986 1.44806 3.80786 3.81489 3.70579 6.24112 5.06428 1.36482 0.270644 2.3679 2.72577 5.5597 5.01336 5.65264 0.631974 6.11112 3.15347 3.82236 0.252071 2.25776 4.16213 0.756324 5.43042 5.74141 1.4762 7.28732 3.99554 2.64058 2.85696 7.97211 0.922478 2.19913 6.07012 0.784437 6.68545 4.35594 0.599328 4.67367 3.60423 1.12958 0.338908 9.43924 2.03452 0.483961 1.20181 6.31382 1.82801 1.05539 6.47149 4.66125 1.91352 5.98872 2.11539 7.05514 5.469 3.97152 2.65273 3.33489 5.99809 1.42979 7.91948 2.15344 6.92929 2.84203 1.12958 2.19582 5.28339 4.24921 5.78012 0.959762 2.14497 3.19566 0.486418 3.32301 7.01615 0.409588 3.59458 7.36993 1.24754 5.68309 2.32625 0.168871 0.683874 0.663097 9.24676 3.33113 0.521208 2.14086 5.68309 4.66599 2.16792 0.599328 3.72069 3.94231 0.515254 7.71576 2.81743 4.44919 0.899902 0.675841 0.806394 2.91891 1.4762 5.19386 0.613795 4.99972 3.97465 1.72731 3.15347 0.724683 3.99736 3.37038 5.70827 2.3735 2.61282 0.623304 3.30527 1.70942 1.52018 0.826222 1.00893 1.11089 0.954545 4.74085 2.1087 5.94748 0.199859 2.60701 2.1888 0.903621 2.3685 2.97393 1.53235 5.20065 5.35298 0.335312 2.89856 2.0228 1.39906 4.17983 3.6904 6.23229 4.12609 0.643322 4.16213 2.55348 0.638764 2.69371 1.15769 1.82516 4.86626 4.709 3.74943 1.93135 3.83531 3.49488 5.03778 4.85098 4.01343 6.27828 2.34444 1.34065 3.64672 5.42341 2.03946 2.66864 1.07356 2.40792 3.66328 2.02671 6.07045 0.845732 3.02731 2.63954 7.12761 3.61869 1.29319 4.57372 1.63605 0.917903 3.2824 5.97666 2.53301 7.54064 1.80267 5.90104 2.25188 3.37038 2.66461 2.81743 1.4302 9.2228 0.76523 1.59692 7.36993 0.468003 7.03344 1.00893 3.24441 1.65894 7.61488 1.87015 0.466469 0.780145 5.54531 0.82557 0.948491 9.98527 5.66957 1.39906 6.37661 0.708546 1.67321 0.922478 4.24946 0.435161 1.15765 0.429729 2.53301 5.37709 1.29458 2.17279 0.865965 8.27736 3.81701 2.62343 7.1588 0.341949 5.0271 0.568167 0.993303 2.77205 6.77047 3.48284 4.33399 1.87275 1.115 3.32301 1.59692 5.85745 5.29139 1.18843 6.39584 2.94653 1.68156 1.68929 9.89943 4.31415 0.924359 4.62101 2.65303 2.64701 1.23789 0.474038 0.635229 0.826257 7.06425 1.13541 1.84474 2.85531 6.06914 0.887016 4.31556 7.14372 0.539923 0.575895 4.76397 0.90889 3.41489 4.47367 2.84443 0.477803 5.63152 0.192661 1.28326 5.44646 3.48767 8.26583 1.94814 6.34748 0.547807 3.99554 0.644405 2.85395 2.49207 0.395507 2.59943 6.9423 1.51371 3.01198 1.55308 4.67454 1.31903 6.14167 3.74055 1.2599 6.51728 3.44581 6.52575 0.397918 0.983608 3.51386 2.16878 1.29319 0.730984 8.33018 0.468003 3.59458 9.69959 1.62632 0.762606 3.79756 3.72143 6.82021 0.594118 4.86177 4.53721 4.39641 3.51353 2.02671 6.61513 2.31367 3.74943 3.9743 0.521208 0.650195 0.527139 7.52105 4.24303 8.69657 1.38936 1.6741 4.0625 7.08395 3.94851 1.48155 2.17995 4.46269 2.62464 0.663097 5.44976 4.65379 0.784437 5.65795 1.20854 2.15344 0.774786 2.68254 3.82921 2.11539 7.84605 0.855941 0.974259 0.781065 0.926652 6.70064 0.900663 0.987465 0.744381 6.5684 0.950075 3.31386 0.915227 8.68772 1.93942 4.04578 0.536122 2.50009 2.62057 1.40249 0.503853 8.36594 0.347924 5.29139 0.540687 4.85098 1.5355 2.76695 3.64672 1.10525 0.540687 5.85745 0.76523 1.29078 2.2892 1.46334 2.90048 4.01343 0.724683 6.11112 0.839127 4.2749 0.586372 8.06767 2.21858 7.76657 3.24513 2.97983 5.88655 2.76695 4.9138 1.78629 2.74713 5.42341 2.06555 4.16727 1.54923 1.26831 2.19913 1.67321 0.858071 4.32249 1.23789 7.29357 4.32384 2.36475 6.92198 3.63272 1.31903 1.65156 2.11194 0.231909 3.19495 1.01996 7.59784 2.69225 5.6302 1.88443 1.62759 5.50834 0.0140309 7.8968 3.23286 2.05596 2.11622 5.96962 0.126392 3.37369 0.592008 4.16115 2.79704 6.09545 4.4627 0.616686 1.76061 1.55464 3.33122 2.04592 3.82236 2.38243 1.41676 8.36594 4.23737 4.34924 3.47528 0.190342 4.88078 2.05614 2.63954 2.71763 7.72916 1.11825 8.32902 0.335312 2.53347 0.950462 0.848557 9.14971 4.83091 1.35903 1.18131 5.17144 0.534273 4.5069 1.07356 1.56192 4.51821 5.25552 0.36674 0.865965 1.09664 10.1834 2.70598 5.97009 1.20181 2.95732 4.16115 2.97393 2.47876 0.370885 3.28494 2.05788 0.758543 5.40915 2.88921 6.44925 2.18689 6.64282 0.810818 4.62037 0.771832 0.574473 1.24888 4.78085 6.34748 1.03549 2.98902 2.77695 2.57814 0.858071 0.708546 9.01189 2.42358 0.818067 6.27828 2.90048 10.9158 2.40877 1.0168 0.810818 3.36761 4.7516 0.346394 5.78 4.11257 1.45467 5.93604 0.670855 0.887016 7.59447 0.650195 3.33113 4.08085 0.623304 5.24734 6.07045 3.71602 6.24155 0.455778 1.53234 6.01711 2.26628 1.94946 6.09545 2.41234 0.959762 0.622896 5.68114 0.0140309 7.53578 4.675 2.37667 3.13067 0.550461 1.53235 5.40915 4.66384 2.17995 3.84714 4.89429 5.6081 0.903621 1.44261 6.6663 0.420846 0.522352 1.1271 1.13358 2.6724 4.74085 1.06047 1.69686 6.37843 0.391534 1.35903 2.64834 1.80054 0.606136 0.859468 3.35618 0.8296 8.4613 1.22951 6.6889 2.8143 0.806394 6.76579 0.412711 9.24676 2.62464 0.191366 5.44407 2.39528 1.78853 7.18987 1.69399 5.94591 5.85306 0.815125 3.89179 0.441813 4.25969 1.92771 0.575895 8.08559 0.306202 7.17761 1.39603 2.40989 0.808019 1.42979 2.44431 5.469 0.546327 3.30846 1.23013 5.85306 0.821395 2.53347 5.35298 3.87962 6.41963 6.70064 4.43079 9.30912 1.70527 2.03452 3.47008 2.08829 3.15639 6.01298 0.960356 10.3577 1.52018 5.57985 3.74055 1.17324 1.129 2.63929 2.53437 5.44976 0.683874 9.03572 6.07012 1.26831 4.83375 5.65795 1.16653 6.00312 2.19642 1.17369 0.878564 4.52672 1.79425 2.22778 2.14497 2.41234 2.79704 2.95732 0.483961 1.70527 0.82501 5.71225 1.53234 1.00148 6.47149 0.290955 5.268 5.02848 0.514542 2.26215 1.97038 2.35137 1.69795 1.16585 7.04716 1.13955 0.97206 8.89601 0.42212 2.62267 0.515254 1.22961 5.49253 5.5309 4.77369 1.81709 1.32555 4.69728 1.13541 0.335342 6.51433 0.752701 4.52672 7.31141 0.427696 1.36482 5.07262 2.17047 2.61476 0.472427 1.06526 10.3971 3.78893 6.7182 1.01109 0.781065 0.398152 3.81489 3.97708 0.663537 0.751245 9.69959 0.409588 2.22338 4.2042 3.2824 0.334918 1.37422 0.796199 2.71704 1.3228 2.57499 0.848557 6.01384 3.5669 1.4204 5.24733 0.225472 0.613488 6.11548 4.75173 2.29075 8.70415 2.22778 0.879504 7.08395 3.22536 0.328286 5.44646 2.12373 0.913937 6.52575 0.859468 11.2801 0.981302 3.88633 7.97658 1.20035 4.93545 4.5069 2.69821 1.74175 3.15639 0.615463 3.65851 1.22049 7.42333 1.76061 6.33169 2.09264 7.10873 1.10902 0.770992 1.61139 1.5428 4.92247 7.64223 6.78205 4.7516 0.781263 0.548275 0.441813 8.43104 0.675083 2.28514 2.66597 0.332906 4.33399 0.563064 3.63986 0.768567 3.03955 3.17984 6.73219 1.18451 6.97114 3.51386 6.31847 1.44898 3.62259 1.91352 4.74339 5.28527 0.594118 2.95243 0.527139 0.131028 4.90253 0.635229 6.89014 8.48662 1.10902 1.61139 10.977 1.11089 7.03344 0.818869 1.01945 2.07774 6.41245 0.552179 2.38615 1.62562 6.41526 1.82801 2.91165 5.68581 0.640557 4.1165 0.529912 1.70934 2.77205 0.332906 2.33768 4.08744 2.32736 3.37602 5.19888 0.74632 9.30912 1.29453 6.68545 2.84203 0.323197 0.99532 1.78878 8.95923 2.30875 0.324616 7.35738 1.88925 3.0347 6.37843 5.10979 2.36475 1.25933 3.02731 5.2028 1.27208 2.05596 2.09879 0.960356 1.20214 2.71763 5.84965 1.23888 0.334918 7.54064 0.429729 5.01149 2.95243 3.51353 3.54218 0.747259 2.04091 7.52105 3.19566 5.71225 5.31906 0.676374 3.27399 0.391595 2.90107 1.28787 3.62968 2.32586 2.26138 8.06243 0.82557 5.93065 6.55432 0.887255 2.18237 3.95569 0.568167 7.04382 1.6741 4.66384 0.758543 5.27915 2.15276 0.600301 4.01386 7.01644 7.65409 1.129 1.41594 6.1426 2.11622 1.27208 4.33022 2.3735 0.770992 8.48662 1.20008 1.06047 0.954545 10.977 0.899902 5.87057 5.44407 1.52902 6.63742 0.370885 1.34366 1.87775 4.55442 0.83763 3.08023 8.01913 2.54261 4.23737 0.503853 3.50136 7.51325 0.751245 5.47131 3.85976 3.55409 2.30235 0.730984 5.0271 0.254498 2.29075 4.0625 7.04382 4.2749 6.9198 1.01403 3.78893 2.42669 0.592221 5.26912 1.82516 1.19609 4.11921 0.741658 3.36726 0.545309 5.17881 5.96962 6.1426 1.70934 6.6905 3.11932 0.481092 6.77047 0.77786 5.544 3.2298 4.88078 1.65679 4.97039 2.91891 2.8143 0.701943 4.15608 3.95251 0.644405 7.28732 2.09879 3.23286 4.24343 3.24441 0.826222 10.3577 0.398648 9.85546 1.04745 4.24185 2.09264 2.0174 3.32008 4.41741 1.0002 2.19582 3.60423 4.99629 0.576929 7.67952 3.80863 2.71704 6.38205 2.54702 5.57985 5.94748 1.59991 3.80383 1.2599 3.89179 0.522477 4.675 1.2647 1.05309 8.43104 3.66328 2.05614 3.2298 1.77643 6.61513 2.34121 1.10065 2.06256 1.68929 1.26926 5.33272 0.592221 5.20541 0.338908 6.41526 5.00109 10.9132 0.388088 1.44525 2.67436 6.6663 8.85505 0.832212 4.55264 3.71265 2.17253 2.20146 3.65753 5.89612 5.75857 2.18156 5.50834 2.31085 1.86997 1.74488 1.5535 2.21866 3.22338 5.6302 0.126392 5.17881 4.24501 1.2647 7.53578 6.92198 5.10979 1.69686 1.20008 6.89014 0.474038 4.66125 1.00148 0.455778 4.07288 2.38253 1.10065 1.71343 4.74339 1.76911 5.20065 3.84714 1.48155 3.27235 1.51371 1.12041 8.26583 0.888854 2.63929 7.65409 2.08888 4.709 2.46791 1.26926 1.68156 1.52715 2.18689 2.08556 2.36655 5.19571 3.07389 0.924359 5.61509 4.35797 2.20024 4.0159 5.52891 1.01403 2.81159 1.22961 3.94231 3.04899 6.7182 6.50931 2.80715 2.77695 6.30481 1.88925 5.86156 0.768567 1.92427 3.08023 1.8037 3.14733 3.31386 5.84641 1.80054 8.88327 3.24208 4.65379 2.53437 0.888854 3.48767 0.328286 2.57812 2.25188 3.56728 0.675083 1.05309 4.24501 0.545309 1.41594 5.70827 3.62968 3.55004 2.22552 3.47806 1.24972 5.97687 2.0001 5.02408 1.44525 0.80572 2.32736 1.41535 6.29492 1.77444 7.59447 6.06914 0.497103 4.36302 1.29453 4.43079 0.926652 1.01109 3.04899 3.72069 4.35594 4.83375 1.54923 8.13525 0.323197 6.92929 1.20854 0.915227 8.88327 2.64834 4.83091 4.93545 0.493408 0.514542 8.80596 1.08855 0.473444 4.15676 5.45134 0.438833 2.80082 4.24303 2.04091 4.01347 6.3044 4.63836 9.08616 0.600532 5.88655 2.44998 8.57072 1.82115 4.11393 3.71602 0.384981 6.29631 4.75173 2.35008 2.91165 2.66597 6.09167 8.08559 0.539923 0.65297 3.32008 0.830267 0.270644 0.427696 1.21614 3.82668 2.18171 1.11825 0.260112 1.15293 1.9284 6.56907 2.03946 2.74713 0.483402 3.6904 2.25776 6.06137 2.40792 10.1834 9.71062 1.10525 0.883597 2.20024 2.61614 3.79756 3.00854 0.335642 7.8624 2.78771 7.71576 2.62267 1.56769 5.2598 2.33439 3.28686 3.90856 1.94389 1.12512 8.90052 2.38243 5.43042 3.06184 1.24888 1.61068 2.45641 4.2042 1.30813 5.37709 5.97666 4.5138 4.06704 2.40989 1.69085 4.77369 0.536122 2.53121 5.9939 2.01631 6.6019 0.818869 7.61488 3.87972 3.16621 6.01067 1.82115 1.88486 9.89943 2.06256 2.38253 3.80787 3.00948 2.70598 0.592008 0.632066 2.4517 4.66908 6.41245 1.21614 10.3971 3.03135 6.50931 1.54417 3.09629 6.43813 0.791235 2.26215 5.45134 1.58987 4.99629 4.67367 2.16792 2.78771 0.837073 0.305494 7.87333 4.51821 1.33944 5.7838 4.72605 2.97812 2.77176 1.62632 2.83458 0.622896 5.78012 3.93908 6.3044 0.910712 5.63049 0.705685 0.73707 6.24872 0.744381 1.08093 1.63605 3.68786 1.18451 0.850324 1.0461 0.794874 0.981302 1.9586 2.01631 1.03338 2.21858 0.600532 0.607191 1.7744 7.02961 4.66908 6.0219 4.15608 4.52292 0.552179 5.14159 0.892229 0.832212 1.00142 2.44998 6.51138 1.80221 8.65505 5.84965 4.61943 2.29405 0.290955 1.05539 1.5428 1.01945 6.01067 3.1256 6.1623 2.35008 6.11548 5.72337 5.68581 1.69085 1.39603 6.00433 2.17047 6.89579 1.81709 0.603734 3.85976 5.77955 1.39714 2.6856 8.69657 2.80082 1.13955 2.03864 3.24513 2.33812 1.18884 0.918635 8.80596 3.47885 5.46652 1.9284 2.27096 9.85546 2.24109 7.3845 1.87775 1.43262 3.66885 3.50136 1.40249 3.99736 8.06767 1.00531 0.744386 7.58865 0.987465 9.12214 1.60606 2.36375 0.306202 7.05514 1.89692 4.13214 7.07657 0.774786 5.28339 1.0002 0.780145 9.91198 0.381674 2.65401 0.305494 1.27322 1.22049 5.68603 3.89192 1.27619 0.693384 2.57812 3.22536 3.44581 3.61869 0.358828 10.0505 1.0189 1.41535 4.08744 4.59136 2.59943 0.910712 4.01347 0.747259 3.34063 3.90856 3.73818 0.801743 5.268 2.29405 1.51922 4.36302 4.9312 0.996812 5.28397 2.49207 6.16738 0.632066 3.37369 1.94946 4.18975 3.47528 4.24326 0.778167 2.97812 4.24921 0.510132 5.21786 4.25969 0.563064 3.48284 0.481092 1.33574 4.96979 1.78097 6.76579 0.675841 6.63742 3.00948 2.07774 6.31382 5.97009 0.754061 6.51138 0.384981 2.26628 1.36908 0.476634 4.02722 1.17369 4.08085 4.66599 1.24754 0.412711 2.17295 3.30527 1.07776 10.9158 1.46334 0.660669 4.5138 5.5309 1.97001 4.11921 6.04504 0.917888 1.76861 6.94552 5.7838 3.69413 3.33122 5.55202 5.87311 7.57903 2.12373 1.28326 1.29958 1.80221 5.98872 3.62259 1.38936 2.6856 2.44202 1.90371 5.10809 0.537783 2.53121 4.04578 4.6105 4.59158 4.76397 1.92771 5.21786 3.88804 6.74038 0.943753 6.6905 0.529912 1.63335 8.06243 0.158919 1.4302 8.33018 2.30235 2.03864 7.04716 1.23619 1.11006 4.63836 2.97983 3.13705 4.6105 1.93942 1.41676 4.18975 0.486418 0.391595 1.52913 0.948078 1.80267 5.19386 5.74141 0.300073 5.24733 0.771832 2.99563 4.0159 0.883597 2.36294 10.637 1.60063 6.10836 1.13358 0.70799 6.10119 3.06429 1.27619 1.59517 5.00109 1.62562 2.4993 1.22951 1.78097 5.75156 3.87962 4.17983 5.66957 2.73218 5.54531 5.68603 3.65851 0.412507 5.93065 1.16084 5.19571 1.45404 1.04745 2.27096 1.15293 7.96722 3.50059 0.231485 0.358828 4.67454 4.89551 0.335342 7.06425 1.11575 7.72916 1.20214 1.17324 6.14167 3.63272 2.69986 6.73219 0.737946 0.993303 5.27915 2.05788 2.32586 5.97687 3.20809 3.33489 0.370526 5.38341 2.17253 10.7748 0.513419 4.40537 7.64223 1.10309 0.948078 1.4204 6.29631 2.28514 3.56728 5.90104 1.90493 10.6121 0.850324 1.44898 8.90499 5.93604 2.31564 4.64 4.63666 4.44919 2.66461 1.70942 2.17295 2.39528 5.87057 1.94389 3.34063 3.54218 4.39641 0.179473 7.72726 3.59692 0.957725 1.06931 3.8773 5.89612 0.443383 7.1588 2.19642 4.34956 2.21866 5.3372 5.14159 0.754061 1.2807 5.61066 1.65624 1.8037 0.83763 3.96515 5.60237 4.72605 5.55202 1.55464 7.42333 1.27322 0.346688 3.1256 3.16621 0.857963 3.13067 6.45618 4.61943 5.01149 1.15765 1.36432 4.11257 1.77444 1.51922 0.643322 7.80663 0.225472 0.300073 2.64058 0.547807 4.78085 3.06184 0.756324 0.472427 2.9287 1.60606 2.23084 4.99342 2.06555 4.92936 2.65273 2.36721 7.51339 7.84605 2.52079 6.24112 2.8408 4.64408 0.562769 0.705685 1.12791 0.818067 6.64724 1.33574 3.11932 0.943753 2.12571 2.34444 2.92731 4.7212 3.81701 0.737946 3.17984 2.80802 0.324616 1.55308 7.21663 6.51433 4.89551 0.466469 4.35256 4.64 3.34478 9.91198 4.11393 3.80787 4.07288 6.24155 5.28527 1.71343 2.34121 4.05779 4.86177 0.80572 8.85505 1.44261 2.1888 5.71409 3.37602 2.50009 6.6019 1.9586 1.6508 3.80379 2.4931 9.01189 6.37661 2.0228 3.71265 5.17153 2.92846 10.7748 
</DataArray>
<DataArray type="Float64" Name="wall variable 0" format="ascii">