<VTKFile type="UnstructuredGrid" version="0.1">
<UnstructuredGrid>
<Piece  NumberOfPoints="    3368" NumberOfCells="    2492">
<Points>
<DataArray type="Float64" NumberOfComponents="3" format="ascii">
-35.8301 -27.8426 0 
5.43322 6.2763 0 
29.2479 -3.49307 0 
0.789581 -36.6384 0 
-15.6382 28.3041 0 
-39.2361 15.33 0 
2.51163 55.2519 0 
-13.9558 61.8807 0 
-30.438 38.4072 0 
44.6513 -15.7913 0 
-37.0941 8.05458 0 
26.798 -13.2331 0 
-7.77413 23.6458 0 
3.90867 -37.4459 0 
40.3372 14.8773 0 
-61.0388 12.4106 0 
-1.71708 -50.8633 0 
48.3536 5.18283 0 
-18.2292 -56.3863 0 
17.7253 -11.8461 0 
31.6765 45.2693 0 
25.6414 30.1977 0 
-29.9025 -24.9698 0 
3.05421 1.13902 0 
-21.7852 42.6363 0 
32.4927 -5.71612 0 
6.12717 -59.0557 0 
-16.244 -32.1923 0 
-33.023 8.80948 0 
-37.8374 -7.80396 0 
43.2628 38.1351 0 
-50.7529 35.4888 0 
-28.2939 47.1506 0 
-19.8488 37.1807 0 
-7.93308 52.3812 0 
-11.1984 51.0798 0 
-8.82702 20.9328 0 
-5.28852 29.9026 0 
46.977 -37.6425 0 
-57.3173 9.2466 0 
31.8612 42.0646 0 
-13.0669 -47.647 0 
22.7588 -37.0163 0 
-25.2965 39.6723 0 
-55.1602 -1.00241 0 
38.9924 -12.5023 0 
-7.49319 -0.925308 0 
-16.169 19.9991 0 
-35.5226 50.3912 0 
35.845 44.2909 0 
-52.4076 -24.6589 0 
14.8428 44.0687 0 
-14.4082 -5.81453 0 
24.7151 -46.8001 0 
-14.9524 -14.6058 0 
-25.8429 3.74905 0 
-5.45688 -30.798 0 
-45.2116 34.7052 0 
59.1667 -6.36509 0 
10.2111 31.6375 0 
1.52541 -58.3963 0 
-9.54225 -54.7274 0 
29.6289 -29.1598 0 
54.5021 12.4901 0 
-35.9106 19.319 0 
5.15128 33.7091 0 
53.3281 20.674 0 
-39.0453 -16.6895 0 
51.7225 -28.5955 0 
7.66336 50.4968 0 
8.92906 -2.62509 0 
-32.3554 -23.8064 0 
42.5783 -42.3335 0 
-53.9287 24.0723 0 
58.8909 -9.38644 0 
-28.1198 -11.4214 0 
55.0772 -20.1165 0 
58.7997 -2.38016 0 
15.2678 -27.3906 0 
0.409787 45.8682 0 
-5.35441 57.805 0 
19.2809 -22.8175 0 
-6.83401 -6.42832 0 
28.8281 40.6401 0 
32.5596 16.6673 0 
50.2495 -5.70915 0 
18.1951 55.755 0 
-0.649839 34.416 0 
23.2798 47.7355 0 
-24.5309 35.5648 0 
39.5097 39.8415 0 
-17.5241 -17.3798 0 
15.107 19.5302 0 
-41.0011 -21.5793 0 
-57.0389 -10.592 0 
23.0879 -42.1856 0 
17.9156 -1.43704 0 
56.0119 -14.4976 0 
-10.308 44.5109 0 
7.6584 -21.8551 0 
-15.4011 -48.0103 0 
-31.0937 13.3201 0 
30.2018 8.25804 0 
-39.3007 3.99953 0 
38.1759 -11.7101 0 
27.4442 52.2159 0 
-38.0066 -3.02045 0 
57.7632 8.41047 0 
-46.5257 19.6534 0 
-47.2703 -32.022 0 
47.4886 12.7739 0 
-10.7001 7.81882 0 
-12.4119 -57.9979 0 
-55.4462 5.26079 0 
-13.3252 56.3713 0 
46.3599 3.0475 0 
-23.5253 -53.8517 0 
23.104 -52.1909 0 
30.1251 -32.8298 0 
23.9673 -3.04826 0 
19.1951 49.9179 0 
-16.1352 49.409 0 
-3.2762 51.095 0 
25.1128 42.9772 0 
-19.9098 48.6546 0 
-25.5217 29.171 0 
6.54256 -52.0721 0 
27.5844 -24.8561 0 
19.1411 34.806 0 
50.9728 0.0277924 0 
5.37705 44.0029 0 
-13.5201 -1.80356 0 
-27.2705 -20.6621 0 
-8.07232 -10.6084 0 
41.668 24.4848 0 
49.787 -35.2487 0 
20.7318 -3.23271 0 
50.7464 24.0288 0 
45.7217 34.2629 0 
-18.1137 -49.7946 0 
-48.973 -20.7931 0 
13.5003 45.1555 0 
7.50643 -58.6253 0 
-3.33868 9.37131 0 
31.1783 28.5179 0 
2.27663 19.8429 0 
-23.9717 -47.8071 0 
48.4776 28.1242 0 
26.1601 13.7352 0 
8.01808 25.9211 0 
-41.3558 14.5493 0 
-40.3448 36.7832 0 
38.7812 20.5437 0 
29.2489 -40.2911 0 
1.08426 45.2719 0 
40.634 34.5559 0 
5.81949 12.7455 0 
12.3265 7.64603 0 
42.4944 -33.8205 0 
-2.19967 -44.5992 0 
-51.0496 3.78651 0 
-8.79038 -9.1091 0 
30.2636 37.4378 0 
-28.3927 23.3008 0 
-34.3983 -19.8466 0 
-52.7803 17.1451 0 
57.0488 -23.1064 0 
-45.2289 -24.1319 0 
-29.8616 46.4126 0 
-10.7831 -15.9155 0 
33.9413 13.4682 0 
-7.29017 -60.4713 0 
-22.2381 9.41353 0 
32.2443 8.89156 0 
9.72518 46.0684 0 
58.3823 -9.90279 0 
-8.49984 16.2903 0 
-44.4573 -27.3448 0 
15.1314 18.4538 0 
8.7561 -4.82535 0 
12.5914 -56.9999 0 
-48.4753 27.5093 0 
-28.5599 13.8925 0 
-2.27332 -31.1612 0 
-27.1197 30.8805 0 
28.6478 -16.8808 0 
30.7406 -25.1527 0 
6.45242 18.1767 0 
-21.785 30.1187 0 
-16.7637 -7.69092 0 
39.4801 -35.4729 0 
27.5845 47.9187 0 
45.7899 -23.2588 0 
-13.3693 -43.0461 0 
34.9146 23.9788 0 
-50.8059 -0.490951 0 
26.2598 21.9536 0 
-11.8267 7.25587 0 
33.3618 -11.9514 0 
58.9309 2.46008 0 
51.6926 18.2253 0 
3.59364 58.2532 0 
-1.54011 -59.9372 0 
-13.643 28.5746 0 
34.8709 47.9415 0 
-15.5374 49.8836 0 
-50.7913 -28.7497 0 
38.4428 -36.0239 0 
-1.28358 -3.49127 0 
45.2167 -30.1123 0 
13.1932 -35.0673 0 
-2.10413 -61.3122 0 
29.0647 22.0014 0 
-0.051228 29.3541 0 
-18.4347 43.302 0 
-13.6193 -28.282 0 
36.5126 -21.003 0 
43.8102 23.1973 0 
10.4158 38.8451 0 
46.3358 -9.31047 0 
-9.42418 12.0656 0 
-15.8674 2.17402 0 
22.6822 -29.5155 0 
-20.3498 52.4205 0 
7.98881 16.1642 0 
-49.8179 -8.77872 0 
-40.0871 -33.9947 0 
-2.45457 31.666 0 
26.7984 -19.9542 0 
24.5382 -26.3917 0 
-32.7931 -14.7835 0 
-48.8063 -33.6054 0 
-39.7547 1.76762 0 
-21.5358 45.8843 0 
1.91243 52.0076 0 
-56.384 -15.748 0 
-29.4905 -6.61006 0 
31.0613 -50.7663 0 
-14.9482 6.82106 0 
11.7967 51.9864 0 
18.0033 -33.9048 0 
-5.20622 -39.1322 0 
-18.1881 31.4368 0 
-23.6742 -1.08416 0 
13.3572 -7.0299 0 
3.08184 51.3077 0 
1.68826 8.60485 0 
-2.63347 -13.0603 0 
-43.9163 27.293 0 
43.384 3.57133 0 
-40.1975 -42.912 0 
47.2638 -36.1292 0 
-23.1389 49.6834 0 
48.6128 10.4116 0 
4.13933 -12.1431 0 
23.2923 -23.0292 0 
34.3295 -47.7421 0 
6.41123 -19.5165 0 
16.4737 -2.06418 0 
-34.9764 -42.2436 0 
-41.4683 37.5797 0 
21.1308 -44.461 0 
-16.1277 9.64615 0 
25.7814 -20.426 0 
8.18335 -42.4431 0 
54.3944 -25.366 0 
-44.97 5.1498 0 
0.684695 25.983 0 
-32.349 42.0607 0 
31.4443 19.9751 0 
55.9589 -24.9994 0 
20.1519 28.2652 0 
-21.3089 55.7116 0 
-37.9943 -26.5753 0 
6.73723 39.9093 0 
12.4122 -41.3128 0 
-10.6507 44.233 0 
-15.103 12.027 0 
31.3746 50.4397 0 
-51.4731 13.8085 0 
48.7529 -6.31726 0 
9.92191 55.9445 0 
-42.598 -21.1834 0 
22.6677 19.667 0 
16.3051 -45.5229 0 
56.2978 -0.0897357 0 
55.0778 -4.78335 0 
15.2377 -38.1977 0 
-57.7662 -7.45817 0 
24.0179 3.55641 0 
51.9135 -21.4204 0 
-45.5028 -2.0441 0 
-2.18414 10.0273 0 
-31.8123 -14.8018 0 
39.3921 12.5639 0 
25.162 -5.28115 0 
19.4331 42.7084 0 
-1.87047 15.6845 0 
-35.1388 -11.0511 0 
-2.89304 -17.1222 0 
38.6812 -1.78091 0 
51.7446 -12.5603 0 
32.4629 -7.49555 0 
-3.63167 26.6137 0 
2.44453 24.9991 0 
-40.8649 32.0383 0 
-56.0607 18.6147 0 
-36.0806 27.9513 0 
20.2432 12.9491 0 
12.5848 14.8733 0 
-48.7648 11.0117 0 
47.4746 17.9854 0 
-41.0796 -35.6249 0 
43.3325 44.8939 0 
-42.9018 7.67072 0 
42.8519 -7.20651 0 
5.50921 -45.0962 0 
-12.2069 37.0838 0 
-46.3466 -11.2054 0 
34.5097 -31.4083 0 
-34.445 -36.6925 0 
-9.01576 45.5382 0 
-39.8108 23.8685 0 
-49.5881 14.9238 0 
39.3625 37.2151 0 
49.367 -31.5967 0 
-59.4235 16.9744 0 
-32.5252 -33.5899 0 
43.302 -22.0737 0 
-32.6489 46.8176 0 
9.63164 -5.74969 0 
-41.6833 -30.26 0 
12.8079 -53.4844 0 
34.7084 4.68929 0 
-51.3293 29.4755 0 
-14.7886 50.471 0 
37.6165 -33.3046 0 
-25.6784 15.8847 0 
47.6873 30.4026 0 
19.763 -31.2697 0 
20.162 -50.8928 0 
-34.1 33.6919 0 
12.3415 -21.8304 0 
-55.6566 15.4883 0 
-28.0293 -27.2321 0 
-9.9186 30.4222 0 
-33.8796 51.1371 0 
-29.9402 -3.62197 0 
-6.17319 3.06261 0 
-10.5606 -27.3062 0 
54.2653 8.53893 0 
-7.33896 -18.729 0 
45.7086 -25.3089 0 
-27.5903 -34.6276 0 
-33.8029 26.6013 0 
-11.3906 19.0161 0 
-22.787 12.5799 0 
39.5864 27.9817 0 
-3.85141 58.8146 0 
-20.1113 24.0363 0 
13.854 -47.248 0 
-48.0374 30.7585 0 
-54.7606 -7.30464 0 
-30.9066 29.4574 0 
-20.292 -23.7096 0 
41.1062 47.2337 0 
-9.98479 61.6204 0 
24.4451 15.0353 0 
27.2697 9.69487 0 
-0.132419 -0.540122 0 
48.7431 -19.8202 0 
-10.453 -26.0707 0 
-32.9581 -0.311089 0 
11.1615 28.8793 0 
1.91428 -10.2153 0 
-15.7835 -51.4632 0 
17.2198 -19.5136 0 
0.171036 -18.9298 0 
-6.63745 5.6991 0 
-21.5352 -39.3365 0 
-31.9347 4.34398 0 
-46.4841 -36.8342 0 
51.7831 -8.22703 0 
35.4755 -40.4955 0 
24.9787 52.658 0 
-5.2804 -49.5757 0 
33.0756 34.0524 0 
-22.825 -43.2631 0 
-4.85673 17.6145 0 
21.3526 38.595 0 
16.3116 -51.7866 0 
-4.66544 -60.9986 0 
10.0017 -34.719 0 
54.8567 4.04011 0 
38.0466 -25.1751 0 
-19.9995 0.872867 0 
-25.5855 -12.8834 0 
38.0559 31.6836 0 
-44.013 -7.71401 0 
-2.47899 39.1281 0 
39.0573 -44.6876 0 
-45.2934 25.9645 0 
23.6243 -10.6077 0 
-57.0709 7.28717 0 
-54.6278 -20.1552 0 
-25.3577 -0.026976 0 
-8.93128 -36.5551 0 
4.98623 57.3288 0 
21.7371 -54.943 0 
5.89602 11.8942 0 
3.80312 33.5284 0 
-42.6459 19.1104 0 
14.8575 9.76912 0 
-43.7023 -35.7461 0 
-18.3496 -26.45 0 
-5.31561 -55.3083 0 
-43.4621 -39.4525 0 
-52.9359 7.59869 0 
32.0448 -47.6055 0 
18.9768 -16.717 0 
16.5944 26.6335 0 
34.562 25.1368 0 
-21.3979 -17.6679 0 
-8.33041 56.6798 0 
-48.503 40.349 0 
-29.0272 51.6939 0 
-35.7767 32.1525 0 
13.2672 35.2225 0 
-19.1909 15.9673 0 
4.11882 8.39586 0 
9.30033 -15.1302 0 
26.4285 -36.0609 0 
-22.8069 7.88022 0 
28.5491 27.8514 0 
-10.6467 -1.04281 0 
30.071 -44.9866 0 
-21.8821 -20.6614 0 
34.8677 -32.4292 0 
-11.0695 16.7489 0 
-9.02198 39.8526 0 
-15.34 35.873 0 
39.0517 -15.4633 0 
13.8662 -27.444 0 
-1.60194 -55.258 0 
-39.3805 42.2384 0 
1.16255 -53.0321 0 
-50.9261 -15.2172 0 
-49.2672 39.547 0 
-40.12 -10.806 0 
1.42773 -45.442 0 
-5.75584 -42.2123 0 
2.28627 -60.6896 0 
44.3702 -36.0385 0 
-51.3828 -10.8716 0 
-6.51504 -23.8902 0 
9.12498 -48.2509 0 
58.9674 -16.3789 0 
-42.4017 12.4967 0 
-4.64839 46.6602 0 
10.2225 4.90764 0 
-24.0325 20.3444 0 
-28.2488 -50.4111 0 
18.7824 21.7245 0 
25.8779 37.193 0 
4.89913 41.2094 0 
5.98187 -12.5097 0 
-18.3894 24.3778 0 
31.5693 -42.8973 0 
8.82376 -30.5161 0 
18.9732 -36.396 0 
-26.4501 -29.9137 0 
3.46663 -26.5734 0 
-20.2623 -30.0944 0 
-16.7572 44.4752 0 
38.7578 -43.455 0 
-58.0139 -0.41514 0 
0.478772 -10.9369 0 
19.5201 -13.3478 0 
-1.57539 35.5329 0 
9.5273 -53.3346 0 
56.6625 11.0955 0 
-17.1308 -40.1718 0 
-18.215 55.3399 0 
-5.35925 -3.30323 0 
15.3653 50.409 0 
-42.3809 44.063 0 
-48.5743 6.8367 0 
15.4293 57.1367 0 
2.55067 -7.12297 0 
8.758 58.5094 0 
10.9949 0.721594 0 
-50.0529 -2.09916 0 
-2.51467 17.0965 0 
17.5397 8.86387 0 
25.4456 -40.4866 0 
[...]
<CellData Scalars="wall variable 0">
<DataArray type="Float64" Name="wall length" format="ascii">
2.81039 1.97432 2.97024 2.75105 6.12206 1.01878 2.74197 0.846815 3.37559 5.15534 2.43724 7.44149 3.7078 4.57717 1.05456 3.9381 3.32254 3.44196 3.66992 1.11604 4.937 1.58604 3.87995 1.5393 2.1129 3.82155 4.35417 0.849939 4.51666 5.05748 4.35417 3.42827 3.0634 1.88256 1.62632 4.2441 0.474782 3.17543 3.12938 3.11545 1.40802 0.32532 7.86541 4.45094 4.62754 4.49869 5.80297 3.38223 3.9289 3.93767 1.85629 6.96328 1.59808 0.773821 4.7814 4.51154 0.577529 6.44527 4.66 7.24364 3.21821 4.2894 4.41657 4.841 0.750242 2.7936 3.0559 4.65298 0.868982 4.92539 2.16336 4.47282 2.03903 3.23318 2.34768 3.41095 2.99249 2.77932 5.49429 3.11362 5.62009 1.53732 2.46368 0.388178 3.47081 6.50854 3.75827 0.846026 4.40443 4.20176 2.67189 2.51109 2.25442 1.29166 6.48886 3.72941 2.40009 2.52364 1.41767 3.2439 0.894364 5.44061 0.266625 4.45801 2.91303 1.48611 6.05309 1.60326 3.01819 2.97236 4.22184 3.70802 1.90146 8.14773 1.23058 3.88117 6.81368 0.579617 9.95205 0.66029 4.66297 4.937 1.19745 6.96616 1.77383 5.94913 3.52057 2.16175 3.79006 1.21263 10.1827 1.68048 1.77852 11.102 1.3906 5.45263 2.02772 0.991693 0.784675 7.44981 0.41994 4.24591 3.40473 4.06353 8.45559 2.16015 5.31701 4.17689 2.61694 5.3157 1.61818 7.48656 1.29742 3.17849 4.85468 5.51787 6.48902 2.39606 3.5358 3.31468 1.01878 3.54623 2.37318 2.82822 0.836879 0.322815 5.15534 3.22483 6.63587 3.88439 2.98882 1.0179 3.25056 1.39058 3.73903 4.56825 1.12272 9.22013 7.38324 4.89153 3.51147 2.04033 3.3616 0.719665 1.69325 3.37493 3.33175 0.528085 4.66 4.45568 2.31897 4.86628 5.40771 2.22487 3.24392 0.386429 3.21357 2.77134 1.89659 7.19945 2.87479 4.16732 0.394656 7.90235 0.467901 4.59942 1.73234 1.9382 1.64156 0.631884 0.60365 5.58472 0.153991 1.37518 4.43562 2.08762 5.2399 0.12685 2.23063 4.40443 5.91008 6.65043 1.07841 6.96257 2.94792 4.07896 4.15505 1.00417 4.03692 2.90599 6.07223 3.52057 0.780832 6.99345 0.866252 1.65562 2.61813 0.38325 3.43818 3.93767 3.35709 4.45568 4.2894 4.62171 3.48591 3.49796 8.91423 2.26053 0.576677 2.9338 5.98409 3.88552 2.02191 0.836879 4.92684 3.80301 2.63282 0.430208 6.78992 0.566676 2.35689 4.39186 2.10772 2.39959 7.67013 3.62322 3.52997 2.79725 3.98652 0.6215 5.51787 2.49931 1.49339 3.79006 0.89883 4.22184 0.62682 4.97863 1.39058 0.727838 1.87571 3.83261 2.50409 3.62777 2.31227 2.35797 4.88175 2.28247 3.1015 5.65498 3.54115 3.99353 1.16611 3.40439 4.47282 3.64765 0.971517 9.11943 1.88922 6.0427 0.750242 4.15072 1.62608 1.9162 2.98572 0.0983423 4.43562 5.37723 0.929056 8.07787 0.888089 4.39017 2.51109 2.42535 1.66454 5.3658 1.94367 1.3895 1.74732 5.16243 3.18673 1.7728 4.06353 1.73278 3.7001 3.47211 3.62322 3.5358 1.92259 3.54201 0.619646 3.64065 2.9102 2.52637 4.43483 3.3616 1.47236 0.583632 0.249282 5.73813 1.51414 1.19446 1.92551 7.66247 5.0294 1.81385 0.47922 4.3102 6.41463 3.32553 1.81385 1.04774 1.33153 1.98447 4.96624 2.69501 2.77999 0.356853 5.91005 2.82249 2.92504 1.30419 4.96624 1.61666 2.52981 3.19243 0.357421 3.7001 3.04336 5.30086 1.69325 5.98607 1.96734 3.42441 2.78832 2.95425 5.30572 3.15353 3.1015 2.28721 3.90395 3.67331 4.07851 1.79029 4.84373 3.56021 2.39814 4.96948 0.81994 3.43088 3.87603 3.81473 0.743931 7.19363 2.73901 2.40223 0.840215 3.11037 3.55333 2.67958 3.41095 2.78993 8.59044 1.60916 3.93513 3.69946 0.747841 3.37493 5.30572 2.84517 8.45528 0.890387 2.9415 3.21026 3.57629 2.85295 11.1201 3.42095 3.26762 3.36052 2.49296 6.41111 1.42863 0.892877 2.64642 4.05305 5.14167 1.49315 9.07959 3.57451 2.43911 2.38468 3.42408 1.97472 4.33891 3.28802 2.86325 2.92133 2.89328 0.453907 1.21395 4.40837 3.21172 1.94367 1.73487 3.05425 2.99654 2.80859 3.52156 5.31318 1.38232 2.67503 6.31034 2.31903 1.18823 5.97255 1.08398 1.81743 2.1607 6.00746 1.83681 3.05425 1.60094 4.60139 2.15498 7.57884 0.396863 7.70875 0.625795 3.18871 1.40147 1.92551 3.18962 1.22073 3.0634 1.44168 3.84146 3.81272 8.79686 0.60365 7.48473 0.38325 5.47276 2.75776 2.80504 6.91104 2.99461 2.97314 1.35426 6.28305 0.729396 3.27858 2.31938 4.96948 0.664885 1.90043 4.73673 1.0116 2.26739 4.2405 2.45946 1.25762 3.35129 3.81333 4.48522 4.31712 3.40282 5.38168 1.0116 6.31034 2.68249 2.93461 6.02979 0.331323 7.86283 0.388178 4.02345 2.5001 4.75989 4.3102 8.33634 0.619646 4.86688 1.52485 1.47236 2.04033 7.60853 0.840215 9.00232 3.72941 0.427317 4.24088 5.31701 1.97311 3.24076 1.95537 2.31903 6.02979 1.00697 4.44458 4.05418 4.47418 3.66772 1.61727 6.10558 2.64644 5.11354 5.31989 2.38468 8.87794 3.72647 2.2679 1.13509 0.389169 3.48764 3.82068 1.0179 8.25463 5.97255 1.08895 8.15913 1.46566 2.82586 2.76621 2.99654 1.83681 3.50349 3.48612 0.396863 2.55369 2.81039 6.43029 7.96704 1.73278 4.82932 3.06239 1.5814 2.31286 3.04336 5.89934 3.5755 5.316 4.18478 2.6424 1.60326 3.19091 5.94218 2.44606 3.7078 3.15397 2.42535 2.67189 1.95537 2.25345 3.24561 2.45132 1.61666 4.78478 0.531724 4.31747 0.631884 9.55243 1.61728 1.75388 0.619326 0.949983 0.426504 3.81272 2.91676 6.10881 0.417219 3.03539 2.81529 1.95937 3.25683 3.25798 2.86325 2.90738 0.32532 5.06924 3.25056 3.82068 4.35229 0.357421 6.32327 0.855895 3.05123 3.52997 3.47211 3.37495 1.29742 1.93735 3.70842 1.68048 0.414777 5.0159 0.324909 8.04222 3.18962 1.19446 7.95719 2.68249 2.67503 4.28728 4.07744 3.91551 3.33612 3.62778 4.66758 3.17849 3.37495 1.18823 4.05418 0.607014 3.19091 2.13379 2.97549 2.02191 4.58826 1.95095 2.84001 2.44666 4.86084 4.43957 3.29744 1.89468 3.22935 4.75989 0.94754 6.28376 0.669374 5.72617 1.97311 2.16015 2.56034 2.71118 1.06437 0.361987 0.945904 1.90382 2.94792 1.86255 2.08843 3.35996 5.76809 2.97036 6.78384 1.60249 3.65823 2.23542 3.9289 3.86485 3.6911 3.0763 7.02532 1.84715 0.780832 1.93425 6.80183 0.962581 3.4817 1.63557 3.46689 3.25392 2.98132 6.42714 1.3895 3.40473 1.18635 7.55688 1.95634 6.10558 2.47259 2.94845 7.06891 1.62853 3.20548 0.394656 4.31747 10.1827 2.51259 1.00697 2.93461 3.91551 3.77711 0.414777 3.37076 5.58181 1.9382 7.85555 1.04135 4.94068 4.33441 2.949 8.206 1.60939 10.0834 0.270299 0.748561 0.66029 3.81585 1.8839 4.98866 3.49069 4.7814 3.66825 5.77696 1.84943 3.8065 3.98704 0.488612 1.49128 8.46259 3.4096 0.249282 0.147258 4.03965 1.13036 2.97256 2.93867 5.45263 2.95717 3.24012 0.669374 3.93037 4.20272 3.30448 4.04326 3.62777 5.49666 6.40889 3.43484 3.03539 3.28802 0.62227 0.784675 5.52217 0.66058 4.47086 4.85468 4.66758 1.52594 1.86287 6.00459 6.02492 4.34774 0.855895 2.25285 2.43302 5.64086 3.85921 8.04222 1.30659 1.93425 2.64409 1.20539 2.80859 2.76621 1.22073 1.68462 0.864686 6.83677 3.97069 2.22487 1.48846 5.59196 3.21256 2.17826 3.35129 4.03877 4.4182 3.49054 6.63587 0.0878103 4.77127 0.74064 4.26948 3.70271 1.51381 2.1933 6.55695 1.41754 1.04135 3.56821 4.80848 0.698104 7.57826 1.23298 5.76304 5.88291 0.141938 0.6795 2.10772 3.35418 0.595814 7.65381 0.936885 2.5342 2.37446 2.23542 4.75702 1.06437 7.76526 1.28625 1.42312 3.55333 2.20753 3.93037 0.517325 6.57524 1.23298 2.19864 1.60249 3.01603 3.75827 4.83078 2.05755 1.9385 3.64344 3.38204 3.66244 3.69637 2.15038 4.45801 5.00276 1.13036 4.36202 2.2679 0.687876 10.4298 1.52594 3.62778 3.19383 4.28728 1.38232 3.25092 2.88886 0.497667 2.85295 3.26264 1.34935 3.89835 0.312147 1.05456 1.34969 3.82269 0.430208 3.33722 3.56015 1.02321 1.8839 3.62013 2.34369 3.3806 1.16611 3.92763 0.943979 3.0266 0.846815 2.33765 2.96219 4.45549 0.162087 6.96554 1.9162 3.113 2.85078 2.73529 3.29902 5.67435 0.634632 1.84943 3.13395 4.5202 0.515666 7.87037 0.945904 6.22097 0.344085 3.09597 2.00066 2.88225 2.99249 2.67958 1.42312 6.63584 0.486313 4.47189 3.66992 4.06988 1.35804 0.579617 4.31581 0.486313 1.65456 1.71306 1.85245 3.66825 0.773821 5.16324 4.26553 2.16483 3.25373 1.58604 4.66297 0.748561 7.06727 2.50308 1.53732 0.869063 3.9381 0.312147 2.88232 2.51826 1.51381 1.7601 1.97472 3.12559 2.39959 0.6795 7.92545 6.33698 2.75776 2.37971 6.69109 0.162087 3.85258 3.04446 0.668224 3.88117 0.19268 5.94694 1.45106 2.56358 2.47259 1.61727 7.01401 1.04774 5.0294 0.569425 2.50116 5.68129 4.92462 1.76934 2.29724 3.23173 5.25109 2.81529 3.43484 3.2672 2.72776 0.531551 8.62116 0.488612 6.42769 1.25744 1.79029 2.31938 0.619326 7.11004 0.4133 0.894364 2.16234 1.49315 5.57425 2.17648 2.75105 3.20074 0.356853 1.98447 8.19945 0.271308 0.991693 4.78773 3.76428 3.2672 5.52217 3.0354 1.62853 4.26651 4.15436 4.72006 1.94561 1.61728 6.13747 0.52557 5.43321 5.08105 3.8 5.264 3.16569 4.0065 6.26405 1.01416 3.64344 2.89425 6.91104 0.974501 2.31227 4.04326 0.700484 4.03691 3.85258 2.73529 1.86155 6.11534 2.26344 4.52207 1.48611 4.29627 3.88439 3.49054 2.70349 5.93672 3.9997 3.18871 2.45743 3.89247 3.64765 2.16336 2.13706 2.87479 2.85334 2.89328 3.72028 5.65498 3.15353 3.98908 2.80479 0.30941 2.98448 3.13894 1.92259 2.39606 2.25116 1.5393 4.7126 2.64409 3.46689 3.53579 1.29166 5.95027 6.70402 7.03664 1.83929 3.62907 5.30974 2.93529 8.91423 2.97549 1.58323 3.11362 1.86155 2.85078 4.29368 1.30092 2.61694 0.499138 7.04913 2.93536 3.97871 3.93691 0.576677 9.03418 1.52939 3.25392 4.24591 2.14755 5.62837 0.721199 7.41156 0.664885 2.39814 0.460695 3.23357 1.23687 2.90599 8.7481 0.949983 5.57425 5.14167 3.05549 2.73561 3.33175 0.747841 3.97196 4.80848 1.4117 3.48395 4.81409 5.059 2.54915 0.892877 7.78585 1.41767 2.55892 5.8032 1.35577 2.1129 2.85332 2.82249 1.08398 2.82586 4.31132 2.67449 1.03621 3.31598 6.48286 4.23139 0.74064 3.50649 2.40009 6.28822 3.06965 4.35229 3.48764 6.92889 1.10521 4.20272 2.20753 3.11037 7.60853 3.51147 3.72028 2.92133 3.25798 1.74895 4.09347 0.166582 0.971517 1.13509 4.36202 4.03965 4.36012 5.50002 1.36193 9.97797 4.48237 0.631589 2.94419 1.87571 1.52939 1.69758 6.16618 3.40459 0.305678 2.71637 2.98132 0.59654 2.1267 4.31712 1.56943 3.35996 2.11725 7.16685 3.52828 6.49116 2.74371 4.12416 1.96734 6.42377 3.53878 3.83141 3.18518 2.49931 3.51351 0.719665 4.43483 5.89195 2.51826 3.25508 3.56015 1.72463 6.14359 1.01166 7.79564 3.65668 2.94968 4.45094 0.665189 2.84001 1.93873 4.29697 0.44544 2.84517 2.95425 2.31291 4.22176 4.23139 1.3892 0.66058 2.48202 3.27813 3.12285 4.26948 2.99945 3.92852 2.3004 1.61008 1.76934 2.75772 3.35282 2.92504 2.85332 5.05748 0.581756 3.35282 5.12309 2.49296 0.828525 7.26905 3.12938 0.391843 3.52828 2.5092 3.98704 2.9797 0.828525 3.36052 3.48277 6.42769 1.09999 3.62559 0.663171 4.93103 2.743 2.96096 2.98448 0.0983423 7.5459 1.68462 4.46065 2.45359 2.08762 3.3862 4.93684 3.93143 0.3639 7.71351 1.65456 4.31581 6.81368 0.668224 9.02887 1.24609 2.56034 5.3157 1.30092 1.6935 6.21231 3.94441 1.60916 2.47409 3.29744 0.562212 5.66303 0.866252 2.18175 9.09383 2.15078 0.499138 4.17689 4.24088 1.9385 5.52042 2.82226 2.99461 2.89425 0.631589 10.5721 0.566676 1.08297 5.11354 3.7206 4.02632 0.625126 2.16653 2.96219 3.07377 3.28618 3.26264 3.57629 1.18185 8.57499 0.625126 3.21026 6.22049 4.06823 2.77689 4.4858 0.569863 7.38533 1.71858 6.05738 2.77826 0.700544 2.94845 0.531724 8.70131 1.89468 0.883828 4.06823 1.26424 4.40213 2.93536 0.326602 6.70402 3.56331 1.03721 1.18185 0.781872 2.91676 3.84146 0.747795 4.55829 4.53719 3.06239 2.29468 2.743 3.46304 3.87603 2.57069 7.76526 2.71118 1.24609 2.68767 4.31132 1.46566 2.2366 3.86485 3.38223 0.952384 3.113 1.62608 3.00304 0.743931 5.08192 1.6935 4.29368 3.99353 1.19486 4.86084 5.35235 5.10786 0.871459 6.71855 3.30448 1.10521 4.89153 0.181053 1.12272 0.729396 5.38168 3.36861 1.781 6.80779 2.77932 2.88225 1.36426 5.1114 3.17908 5.22517 0.373171 7.44981 0.62227 4.40837 5.17366 0.153991 3.13372 1.61909 4.92684 2.82822 8.53354 3.33056 3.42441 3.18518 3.05377 5.74728 6.43029 2.74197 3.31468 3.37559 3.0266 0.718573 2.79725 3.05123 4.34774 1.68463 0.19268 1.23058 3.29393 1.07841 2.7277 1.62632 2.71885 7.12741 3.89824 0.623674 9.52357 0.460695 3.56021 4.37205 3.42095 2.00066 0.25478 6.749 3.24392 3.97069 1.30103 1.36426 7.02532 5.08447 0.855427 3.69946 2.50824 2.78993 0.855427 3.56854 4.22176 7.08765 0.520202 2.05839 7.61445 0.62682 2.97236 1.11219 4.60139 3.0559 3.46606 5.30045 1.02571 5.92525 3.95468 3.4817 2.37077 0.868982 5.15775 0.577529 1.48035 3.54452 6.47442 0.271308 0.274306 4.47418 1.32817 0.929056 4.29176 3.48395 4.55909 0.467901 4.21112 1.94561 1.30419 5.12309 2.75772 4.92462 2.7745 2.69501 2.257 8.32764 0.305678 0.26435 2.37971 5.47276 2.61813 2.80479 2.53663 0.569863 3.09448 3.18673 0.349955 5.21877 1.77852 3.70842 3.31668 3.8344 1.74294 5.43321 0.653904 1.65073 3.31598 3.83225 4.46065 1.48846 5.40771 0.453907 2.85334 7.19945 1.29414 9.35803 2.05839 1.60094 1.73487 5.3658 6.73386 0.754057 2.72118 5.73813 3.4096 1.3906 0.373171 4.13402 3.24072 3.93143 0.432101 5.64086 2.46176 4.33441 1.31758 2.11725 2.08843 4.46335 1.58626 0.72344 5.76304 1.34935 3.28618 2.78651 2.63145 1.34969 7.86084 5.58472 2.80504 6.33698 0.708231 3.13372 1.74895 3.25683 1.36704 4.2405 0.522185 6.88197 1.01166 7.10619 1.28997 4.02345 2.46368 2.50308 3.8065 0.634632 3.29956 3.11545 7.26905 2.9797 0.515666 2.98294 2.99945 0.581756 4.51666 5.14758 2.25668 4.07744 3.19383 3.33612 5.0159 3.77711 2.46764 3.38596 6.41111 2.5092 4.12416 3.92852 2.98294 3.09597 6.59739 6.48886 3.53579 1.63557 3.95468 2.11198 2.18175 0.427317 3.50349 7.57884 1.57505 2.46764 2.74371 1.89299 1.12888 0.974501 6.28305 2.2588 2.90702 1.781 2.11411 1.36193 2.35797 1.71306 9.02887 3.04446 4.03691 4.20749 0.952384 6.96328 4.24879 5.12782 2.67449 4.76436 7.16685 1.31758 3.35418 4.39186 0.494267 5.02349 5.35235 2.44666 0.665189 5.80297 1.76677 7.19363 3.00304 4.15072 4.841 1.58752 5.16324 1.59808 3.17838 2.03903 3.40439 3.3806 4.48237 0.979578 0.59654 4.76436 2.35689 10.5721 1.81743 6.48286 1.65073 4.86628 2.23711 1.02571 2.54673 2.4981 5.76809 1.56943 4.48522 4.73673 1.84318 5.2399 2.45359 3.83225 1.03621 5.12782 0.43314 0.0878103 3.22483 5.06924 1.40802 3.29956 5.67435 1.37518 8.53354 2.37318 0.394209 3.54452 5.37723 2.36531 5.94694 1.68463 3.85921 0.432101 4.93684 1.39806 11.102 0.653904 0.52557 4.71679 5.89035 0.934512 0.371725 7.08765 2.31291 2.78832 3.33056 1.21567 3.65668 0.700484 6.40889 0.600679 2.98475 5.68762 3.38204 0.385157 7.71351 2.79133 0.517325 6.50854 0.589746 1.88922 0.248032 6.65043 0.677046 2.46416 2.1607 2.54673 5.30045 7.78585 9.07959 2.16234 3.2439 1.65497 0.522185 2.26739 6.08279 3.09589 10.0834 3.92763 9.11943 0.166582 3.29224 4.98866 1.38191 7.12741 0.576589 3.05549 4.05305 2.27831 1.58626 0.589746 4.20176 2.23063 0.248032 3.46606 2.7936 6.0427 5.05814 4.29697 3.43354 7.65381 1.21567 5.74728 1.54015 3.41275 4.62754 2.94968 3.56821 8.206 0.750452 4.59942 4.55909 1.4117 0.849939 4.2441 2.7277 4.15505 1.81958 5.14758 3.6462 8.45559 1.7728 3.09448 4.4858 1.29515 1.74732 6.42714 2.71637 8.32764 1.65562 5.66303 2.38857 0.349955 5.16243 1.29515 2.257 4.26553 1.58752 2.34369 3.56356 1.19745 1.11604 4.47189 3.0763 1.52388 0.936885 3.43354 1.93873 3.56854 5.08447 1.84715 2.50824 3.93513 3.94441 6.99345 2.88436 6.10881 0.781872 6.22049 2.9415 6.11534 7.04913 2.15078 1.14156 2.94166 0.528085 2.73561 4.29176 4.72006 0.36451 7.24364 1.54483 7.96704 0.718573 0.943979 2.90254 3.56331 3.62907 0.322815 6.78992 3.82269 2.63145 2.88258 2.43724 2.02772 2.93867 3.93743 4.18478 0.420674 4.78773 4.62997 2.2588 1.35426 1.84916 1.49128 8.62116 1.88256 8.79686 0.426504 8.7481 0.576589 2.71885 3.24486 0.81994 1.76677 4.41657 1.65424 0.386429 6.749 3.01819 2.6424 3.93743 2.97256 5.00276 0.367192 1.86495 1.72463 3.33722 2.63282 2.14035 6.16618 1.26424 7.38533 2.53663 3.98908 4.07851 1.15841 3.05451 11.1201 0.497667 3.97011 5.89035 2.11198 1.48035 4.51154 3.49069 0.489594 1.14156 9.09383 3.76973 4.83078 1.6828 4.77127 0.43314 3.29902 0.569425 6.41463 1.52485 3.07888 2.73901 2.34768 2.06936 4.33569 1.59805 2.51863 4.03877 1.25762 5.37606 2.37077 0.962581 3.58208 4.16732 2.13706 4.92539 0.747795 1.44168 3.42827 3.82155 1.35577 1.3112 7.03664 4.65298 5.92525 2.23711 3.21357 1.65424 1.11219 8.14773 1.9867 0.623674 1.42863 3.38596 1.57505 2.15498 0.6215 1.86201 4.06988 3.44196 2.25116 6.48902 3.89824 1.38191 4.46335 1.86255 6.96257 1.08297 7.67013 3.12559 3.42408 5.31989 1.09999 4.7126 3.87995 3.25373 5.44627 2.19864 7.57826 1.34238 4.75702 3.65823 1.03537 6.22097 0.361987 2.4981 1.90043 7.41156 3.97196 8.45528 0.44544 5.05814 0.595814 1.34238 0.698104 0.700544 4.38736 4.03142 4.26651 7.06891 3.17838 6.44527 5.15775 3.23318 0.520202 0.371725 7.79564 1.95095 2.47409 8.59044 0.12685 1.84318 4.24879 1.85629 3.43818 7.48473 0.607014 4.44458 2.51259 1.21263 1.39806 2.30182 5.94218 3.48612 1.12888 5.76925 0.474782 0.75657 7.70875 0.417219 2.88436 0.890387 3.05451 4.71679 6.13747 2.68767 6.21231 5.08192 3.81473 1.59864 6.73386 1.66454 2.45132 1.03876 0.871459 4.56825 1.25744 3.48277 3.26762 4.37205 4.84373 3.93207 5.37606 2.45946 1.36704 1.95937 5.25109 2.76075 4.31154 3.21256 1.43182 7.20045 0.72344 2.27831 2.64642 2.54915 3.50317 5.88291 0.641104 7.06727 0.270299 3.09589 1.23478 2.76075 1.20584 4.0065 0.489594 5.77696 1.85245 4.20749 2.26344 2.94166 2.79133 0.3639 3.24072 4.94068 1.41754 6.57524 0.30941 5.21877 2.38857 0.562212 4.43957 1.19486 3.54115 0.279558 2.9102 3.54736 2.77999 2.7745 5.68129 2.33765 7.44149 2.88258 2.78651 3.07377 5.44627 2.16483 0.641104 3.16569 4.30515 3.62559 0.274306 8.19945 1.33153 7.01401 3.66772 3.20074 2.97024 2.88582 2.55892 5.91005 0.25478 6.63584 1.28625 2.57069 3.43088 3.24486 4.48246 8.07787 1.32817 2.64644 1.95634 0.730197 0.394209 3.54623 6.12206 2.17648 6.47442 2.16175 6.07223 1.23687 3.57096 3.70802 0.89883 2.95684 5.30974 3.47081 7.86283 0.687876 8.25463 2.98882 4.29627 2.91303 0.75657 7.86541 2.90738 3.06965 1.0275 2.45743 0.625795 3.89835 7.86084 1.02321 3.25508 2.88232 0.708231 6.69109 0.26435 3.40459 2.14035 3.80301 1.61909 0.754057 1.59864 3.73903 4.97863 7.61445 1.30659 0.324909 2.90901 2.77134 3.58208 6.80183 3.19243 1.45852 3.37076 0.721243 2.25285 6.32327 2.1933 7.92545 0.141938 3.50317 5.059 1.34828 1.03876 3.24561 3.84377 2.95717 6.71855 6.08279 3.81333 2.17826 4.31154 1.23478 2.88582 1.97432 2.55369 1.54483 1.83929 1.3112 5.8032 0.131734 3.17908 3.47467 2.97221 0.730197 7.55688 3.27858 6.80779 2.90702 4.62997 0.531551 2.90901 7.95719 1.51414 2.72118 0.295346 1.29414 1.89659 1.75388 5.08105 1.74294 2.59811 7.11004 1.45106 2.36531 3.3862 0.385157 2.98572 6.96554 0.47922 3.32553 3.54736 3.64065 8.33634 1.0275 6.92889 0.389169 5.50002 0.759903 3.89247 1.49339 5.89195 2.52637 0.279558 2.50116 2.8556 1.77383 1.69758 5.62837 0.885644 0.94754 2.5001 1.28997 3.8134 0.367192 2.63807 3.29846 3.31668 1.93735 7.48656 3.24012 3.84377 2.25345 3.24076 5.72617 1.9867 1.90146 3.57096 3.23357 9.52357 1.40794 3.47467 5.1114 1.30103 6.83677 3.50649 6.55695 1.34828 4.81409 2.52364 3.54201 3.13894 2.96096 2.29468 4.82932 0.888089 4.48246 2.97221 1.40794 0.864686 7.5459 5.98607 2.31897 3.35709 0.443929 6.42377 6.14359 1.86495 3.8134 7.10619 0.721243 7.85555 1.73234 0.750452 2.949 2.46176 2.43302 3.81585 6.96616 3.56356 3.62013 0.583632 9.00232 2.40223 3.07888 4.86688 1.58323 2.13379 3.15397 3.32254 0.869063 5.62009 0.727838 9.22013 0.181053 7.38324 3.51351 2.06936 5.49429 5.22517 0.131734 1.18635 2.56358 0.88252 5.44061 0.4133 2.59811 3.8344 3.29846 4.09347 6.88197 1.65497 1.60939 3.29224 2.52981 9.55243 1.64156 5.58181 1.45852 1.44632 0.677046 5.91008 0.846026 3.01603 6.78384 2.25668 1.81958 4.07896 1.90382 7.87037 2.8556 2.29724 1.61008 2.64342 1.00417 5.94913 0.326602 9.03418 2.26053 2.93529 2.95684 0.331323 3.22935 1.21395 9.35803 0.295346 4.13402 5.17366 1.20539 5.95027 2.25442 4.39017 3.21172 0.147258 7.66247 1.40147 3.9997 0.759903 4.36012 3.29393 9.95205 1.35804 1.86201 3.98652 1.57719 4.33891 1.7601 3.70271 3.12285 4.14063 1.03721 2.90254 4.45549 2.16653 8.57499 0.391843 3.17543 5.76925 1.89299 6.49116 3.13395 8.46259 1.84916 2.97314 2.82226 0.79952 2.94419 4.02632 2.03656 3.65136 1.33448 3.83261 2.11411 3.36861 3.40282 2.1267 0.979578 9.97797 2.44606 2.30182 0.934512 3.97011 2.88886 4.57717 1.3892 6.28822 0.266625 0.88252 2.63807 1.61818 4.47086 2.05755 3.76973 4.5202 0.79952 5.52042 2.3004 6.59739 0.344085 1.03537 0.721199 4.03692 2.64342 0.784197 2.5342 1.52388 3.6911 2.2366 8.15913 5.30086 2.31286 4.94705 8.70131 4.78478 0.883828 6.28376 0.885644 2.14755 0.41994 