<VTKFile type="UnstructuredGrid" version="0.1">
<UnstructuredGrid>
<Piece  NumberOfPoints="    2432" NumberOfCells="     407">
<Points>
<DataArray type="Float64" NumberOfComponents="3" format="ascii">
29.4254 -27.5057 0.0
28.7911 -28.1792 0.0
33.3445 -31.9369 0.0
34.8033 -30.6027 0.0
34.7342 -25.5713 0.0
39.4937 -43.5133 0.0
39.4395 -42.8274 0.0
33.089 -42.1861 0.0
32.2544 -42.867 0.0
29.5035 -48.0877 0.0
29.3907 -48.8616 0.0
25.3464 -18.7422 0.0
25.2376 -15.5124 0.0
19.3462 -17.6631 0.0
18.9667 -19.1294 0.0
19.5292 -20.0797 0.0
-0.0123478 14.4287 0.0
-1.74646 16.1302 0.0
-9.81023 10.1538 0.0
-9.45624 7.98673 0.0
-9.18696 7.67462 0.0
-0.932507 13.6418 0.0
50.2554 -8.0174 0.0
51.3727 -6.95327 0.0
49.2926 -1.74865 0.0
46.2841 -4.14311 0.0
44.7764 -6.07888 0.0
46.1004 -8.78937 0.0
53.4924 -6.35188 0.0
55.2928 -7.65899 0.0
58.48 -3.38824 0.0
55.1314 -0.467113 0.0
-30.409 -2.85293 0.0
-31.1257 -2.4894 0.0
-34.0546 -2.27567 0.0
-32.848 -6.9997 0.0
-29.9494 -9.64976 0.0
-29.5411 -9.89423 0.0
-28.7543 -9.69026 0.0
12.1777 -17.8466 0.0
13.7256 -15.6834 0.0
11.209 -11.2437 0.0
8.11707 -12.2733 0.0
10.4585 -16.5663 0.0
9.34603 54.0249 0.0
14.9375 52.7633 0.0
13.691 55.0811 0.0
10.2476 58.8109 0.0
15.5229 -34.0998 0.0
11.9714 -34.0282 0.0
11.4542 -34.4036 0.0
11.271 -37.0907 0.0
12.6194 -38.3282 0.0
15.4355 -38.2688 0.0
-52.2787 -12.0146 0.0
-49.3779 -12.4019 0.0
-43.5352 -6.91442 0.0
-43.7387 -6.66611 0.0
-53.12 -9.07889 0.0
-36.4576 -13.8052 0.0
-40.715 -12.0365 0.0
-41.7983 -13.3593 0.0
-41.6898 -16.0047 0.0
-41.2563 -18.6953 0.0
-41.1236 -18.7634 0.0
-48.2543 -16.9032 0.0
-48.493 -13.7014 0.0
-49.5589 -12.9842 0.0
-52.4597 -12.597 0.0
-53.1438 -14.0123 0.0
-52.7669 -18.1767 0.0
-52.3169 -18.7634 0.0
-6.72592 -5.73609 0.0
-7.21639 -5.46105 0.0
-9.21206 -5.87837 0.0
-9.72608 -7.05647 0.0
-10.6458 -11.2385 0.0
-6.38671 -12.9701 0.0
-5.22257 -11.8314 0.0
31.1061 -6.73081 0.0
32.9675 -3.13303 0.0
32.6087 -2.79306 0.0
29.4996 -2.66837 0.0
25.6942 -6.93681 0.0
25.5012 -7.89912 0.0
25.5822 -8.28263 0.0
-59.4348 -23.3574 0.0
-57.4586 -26.176 0.0
-56.181 -26.803 0.0
-51.7198 -22.2334 0.0
-52.7693 -19.514 0.0
-53.2193 -18.9272 0.0
-18.2145 45.9565 0.0
-19.1049 45.8803 0.0
-20.0053 40.2984 0.0
-18.5058 40.0955 0.0
-15.7787 40.4073 0.0
-15.3574 43.4526 0.0
-17.0553 45.3932 0.0
57.759 6.45025 0.0
57.8356 13.9757 0.0
54.7814 13.626 0.0
53.6825 10.3981 0.0
30.0886 -11.4665 0.0
34.4737 -10.7876 0.0
36.6431 -6.56359 0.0
35.0066 -4.34229 0.0
33.9989 -3.4195 0.0
33.3777 -3.37482 0.0
31.5163 -6.9726 0.0
30.5786 39.3217 0.0
31.5796 39.8029 0.0
30.0384 43.7242 0.0
27.3373 44.5785 0.0
26.0721 44.5391 0.0
24.2083 44.1152 0.0
46.8159 24.3485 0.0
47.0631 24.4906 0.0
47.1924 24.888 0.0
47.1415 25.4258 0.0
45.3595 27.5263 0.0
43.4983 28.0278 0.0
39.9079 26.4796 0.0
38.9309 25.6389 0.0
-12.8893 20.9978 0.0
-13.0324 21.0945 0.0
-15.4829 21.0707 0.0
-18.8605 16.0201 0.0
-18.8153 14.0993 0.0
-17.4389 13.4692 0.0
23.5297 26.7094 0.0
25.0311 25.2394 0.0
30.9847 29.6441 0.0
30.9063 30.6484 0.0
26.544 32.44 0.0
34.8397 17.4688 0.0
36.0795 18.2007 0.0
36.4703 22.6954 0.0
36.0823 23.641 0.0
34.0925 24.4238 0.0
33.3501 24.0419 0.0
32.5111 22.5255 0.0
-44.5143 37.2225 0.0
-49.3811 39.3641 0.0
-48.6004 32.281 0.0
-46.9681 31.1729 0.0
-45.1626 35.6045 0.0
-35.8948 16.8207 0.0
-38.4993 16.1592 0.0
-39.5099 12.7711 0.0
-37.4554 10.6742 0.0
-31.3288 11.1754 0.0
-34.011 25.5942 0.0
-34.4248 26.4495 0.0
-40.5069 23.07 0.0
-41.1937 22.5188 0.0
-41.0609 20.77 0.0
-39.5594 18.7516 0.0
-59.0821 16.4521 0.0
-59.442 16.0537 0.0
-59.5814 15.3725 0.0
-58.7021 10.047 0.0
-57.7915 8.41876 0.0
-53.6619 10.8948 0.0
52.5589 -15.4238 0.0
51.5658 -14.8725 0.0
45.2639 -16.1804 0.0
44.9643 -16.7601 0.0
44.8028 -20.4186 0.0
47.3271 -21.1267 0.0
23.7148 -42.8902 0.0
27.3298 -40.1072 0.0
23.9046 -38.1413 0.0
21.5324 -39.396 0.0
21.8048 -42.2439 0.0
22.4666 -43.135 0.0
-39.5292 0.475498 0.0
-40.491 1.79129 0.0
-46.2082 3.69469 0.0
-46.4293 0.433886 0.0
-43.2744 -1.78256 0.0
5.91179 34.5686 0.0
3.39822 35.6841 0.0
1.96358 34.9429 0.0
-2.93902 29.9069 0.0
-2.16837 29.3909 0.0
7.9755 21.4908 0.0
7.42029 20.8366 0.0
6.60433 14.0792 0.0
7.21278 13.9843 0.0
7.55802 14.2716 0.0
9.90313 17.2268 0.0
10.431 19.7791 0.0
9.5827 21.2732 0.0
7.99062 33.5366 0.0
6.05138 34.4129 0.0
-2.02879 29.2353 0.0
-0.701208 28.3035 0.0
0.628453 28.7383 0.0
6.65214 32.6638 0.0
-25.689 -26.6653 0.0
-26.1405 -26.1613 0.0
-27.1655 -26.0359 0.0
-30.1836 -29.0673 0.0
-30.8955 -30.7726 0.0
-27.6791 -34.0044 0.0
31.4187 47.4071 0.0
31.1228 48.0102 0.0
22.6384 49.6324 0.0
27.2835 45.0379 0.0
29.9846 44.1836 0.0
31.4144 46.1411 0.0
-4.1345 29.96 0.0
-3.31659 29.9327 0.0
1.58601 34.9686 0.0
-4.31748 35.1398 0.0
-3.60348 -56.4888 0.0
-1.60823 -55.1094 0.0
-5.412 -47.052 0.0
-5.61499 -47.072 0.0
-6.16914 -52.0505 0.0
-5.77492 -55.8267 0.0
-5.41135 -56.0143 0.0
-48.9086 -24.0065 0.0
-51.4247 -22.5573 0.0
-55.886 -27.127 0.0
-53.889 -29.5177 0.0
-52.8872 -30.0691 0.0
43.0752 -21.5045 0.0
44.1548 -20.5915 0.0
44.3163 -16.933 0.0
39.2832 -18.6897 0.0
36.2673 -19.9863 0.0
39.5069 26.8715 0.0
43.0973 28.4198 0.0
42.1072 30.2332 0.0
40.0176 33.0984 0.0
35.7492 31.436 0.0
-44.9739 16.1213 0.0
-41.7233 20.4042 0.0
-41.8562 22.153 0.0
-42.8578 22.7704 0.0
-48.9223 16.6706 0.0
20.7647 -39.6125 0.0
20.6165 -39.4973 0.0
10.7498 -43.8002 0.0
9.75338 -45.2258 0.0
13.8703 -44.9076 0.0
21.0371 -42.4604 0.0
-41.509 11.1628 0.0
-40.8735 12.1883 0.0
-45.6932 13.2082 0.0
-48.7927 9.72055 0.0
-46.6122 7.74853 0.0
-43.7136 8.67059 0.0
6.88812 32.5112 0.0
0.864432 28.5857 0.0
6.98158 28.3085 0.0
8.09107 28.6168 0.0
-19.2134 -57.66 0.0
-16.1803 -59.6181 0.0
-11.654 -56.5207 0.0
-11.268 -55.933 0.0
-12.5911 -54.148 0.0
-14.9331 -53.1072 0.0
-16.8272 -52.6471 0.0
-17.0649 -53.155 0.0
6.62241 -11.0838 0.0
7.26178 -11.2791 0.0
15.3058 -5.34949 0.0
15.2665 -4.49997 0.0
14.3264 -4.02373 0.0
13.5975 -4.07794 0.0
6.91955 -9.25272 0.0
25.5551 35.1002 0.0
19.5971 38 0.0
19.1627 33.0613 0.0
19.959 32.6885 0.0
25.689 33.4964 0.0
-11.9234 53.9927 0.0
-9.65254 53.6982 0.0
-4.87517 57.1448 0.0
-4.9665 57.9724 0.0
-12.1589 58.8696 0.0
18.3934 -18.9356 0.0
18.7729 -17.4693 0.0
19.668 -13.5978 0.0
17.0575 -12.1954 0.0
14.2835 -15.8526 0.0
12.7356 -18.0158 0.0
12.8541 -18.4545 0.0
17.7154 -18.8857 0.0
25.3125 11.6471 0.0
27.2857 7.2483 0.0
29.2753 8.64443 0.0
32.5238 11.1547 0.0
32.5445 11.3904 0.0
32.0284 13.3675 0.0
-43.9304 -4.64735 0.0
-43.6954 -2.11753 0.0
-46.8503 0.0989113 0.0
-47.9773 -0.146346 0.0
-50.6898 -0.704933 0.0
-52.3572 -3.56937 0.0
6.64758 -46.7162 0.0
7.17128 -46.0713 0.0
5.14412 -40.5744 0.0
0.00458237 -41.5695 0.0
-1.08554 -42.934 0.0
-1.10528 -43.1662 0.0
3.11199 -45.7827 0.0
-14.5605 39.2528 0.0
-9.6443 42.4842 0.0
-11.7353 45.231 0.0
-14.8689 43.4137 0.0
-15.2902 40.3684 0.0
-25.2577 24.246 0.0
-27.0887 22.9621 0.0
-24.2083 18.1865 0.0
-22.286 19.5328 0.0
-23.02 23.0351 0.0
-23.8741 24.1813 0.0
-34.0933 -47.9903 0.0
-32.2457 -47.8555 0.0
-32.918 -41.5385 0.0
-36.9574 -41.6634 0.0
-37.179 -43.7347 0.0
18.4567 18.0663 0.0
17.706 17.9871 0.0
14.967 14.4315 0.0
17.9694 11.1278 0.0
19.6493 12.4236 0.0
21.4342 13.9656 0.0
19.2847 17.5209 0.0
28.6434 0.540735 0.0
29.0942 -0.266992 0.0
35.5143 4.90708 0.0
36.1268 6.35874 0.0
34.2287 7.87817 0.0
30.6989 3.2941 0.0
13.4063 -3.84339 0.0
7.97563 -1.97671 0.0
6.14001 -6.38351 0.0
6.72833 -9.01816 0.0
18.5008 -2.50117 0.0
23.4988 -4.90957 0.0
23.8683 1.43248 0.0
22.7713 1.86625 0.0
21.4137 1.71411 0.0
20.3328 1.59962 0.0
29.5215 -11.7093 0.0
30.9493 -7.2154 0.0
25.4254 -8.76722 0.0
25.0819 -12.2435 0.0
25.7638 -12.8661 0.0
28.8656 -12.3093 0.0
30.8638 48.3978 0.0
30.7551 49.2898 0.0
28.0369 52.1246 0.0
20.7394 53.0333 0.0
19.5869 51.7684 0.0
22.3794 50.0199 0.0
23.5631 -49.4761 0.0
21.5917 -45.8642 0.0
17.252 -48.6049 0.0
17.1908 -50.8223 0.0
-1.84101 16.4355 0.0
-2.37325 17.7838 0.0
-3.69069 18.5076 0.0
-6.23693 18.053 0.0
-10.4512 11.6158 0.0
-9.90477 10.4591 0.0
32.7997 10.8444 0.0
29.5513 8.33415 0.0
30.5992 3.64482 0.0
34.1291 8.2289 0.0
-29.6541 3.85491 0.0
-30.1497 3.47282 0.0
-30.8254 -1.93071 0.0
-30.1087 -2.29424 0.0
-25.5237 -2.70569 0.0
-25.1814 -1.86744 0.0
-25.9974 0.296424 0.0
-5.15418 3.41429 0.0
-5.65442 0.529075 0.0
-0.855475 -2.89127 0.0
-0.636707 -2.7082 0.0
0.00243981 -0.479595 0.0
-2.08859 2.98678 0.0
-3.37186 3.74274 0.0
21.7635 13.3089 0.0
19.9786 11.7668 0.0
21.4003 2.64507 0.0
22.7579 2.79721 0.0
22.0404 13.226 0.0
-17.77 46.6997 0.0
-16.6108 46.1363 0.0
-9.20257 51.2213 0.0
-10.0581 53.0635 0.0
-12.329 53.3581 0.0
-13.0369 53.2006 0.0
-18.9608 -40.4932 0.0
-18.1198 -40.1649 0.0
-14.9489 -35.6992 0.0
-17.2915 -33.7449 0.0
-21.4133 -35.8892 0.0
33.37 38.9503 0.0
34.1639 38.2661 0.0
39.8887 36.4472 0.0
41.3444 37.4981 0.0
41.3711 37.9481 0.0
37.0327 41.2581 0.0
-15.2613 36.858 0.0
-19.5637 33.8412 0.0
-19.2809 30.2071 0.0
-15.6271 29.0259 0.0
-14.4752 29.9742 0.0
34.5814 -2.72011 0.0
35.5891 -3.6429 0.0
42.3382 -1.23551 0.0
42.6794 2.78259 0.0
38.6725 0.653831 0.0
44.457 -32.2538 0.0
44.088 -35.0313 0.0
44.5367 -36.3138 0.0
44.9845 -36.387 0.0
46.4984 -35.9668 0.0
50.3884 -32.0509 0.0
-9.19646 53.406 0.0
-8.34094 51.5637 0.0
-7.35851 50.7773 0.0
0.5949 52.9874 0.0
0.621141 53.4521 0.0
-4.41909 56.8526 0.0
-27.6321 33.4871 0.0
-27.5792 32.5389 0.0
-25.3065 24.9547 0.0
-23.9229 24.89 0.0
-21.9955 28.2489 0.0
-40.7304 -44.2213 0.0
-37.7419 -43.4058 0.0
-37.5203 -41.3345 0.0
-38.5239 -39.8002 0.0
-40.2108 -38.1077 0.0
-43.0706 -38.8094 0.0
1.76959 52.6829 0.0
6.18551 50.5286 0.0
10.2989 49.1646 0.0
8.15162 53.7967 0.0
4.65626 55.2075 0.0
1.69205 53.3355 0.0
1.66581 52.8708 0.0
38.8036 1.19482 0.0
42.8105 3.32358 0.0
43.6097 4.83009 0.0
43.217 6.43699 0.0
40.4724 7.3771 0.0
37.936 6.52548 0.0
-41.7177 -19.1179 0.0
-42.1513 -16.4274 0.0
-47.1562 -18.1237 0.0
-45.9384 -22.4964 0.0
8.15168 -37.8012 0.0
10.7793 -36.9736 0.0
10.9625 -34.2865 0.0
6.47782 -32.0512 0.0
5.68841 -32.1793 0.0
14.2642 -28.6462 0.0
16.096 -26.9431 0.0
8.26413 -24.6935 0.0
8.43 -26.8378 0.0
8.46874 -27.1946 0.0
[...]
<CellData Scalars="cell variable 4" Vectors="cell vector">
<DataArray type="Float64" NumberOfComponents="3" Name="cell vector" format="ascii">
0 0 0
0 0 0
0 0 0
0 0 0
0 0 0
0 0 0
0 0 0
0 0 0
0 0 0
0 0 0
0 0 0
0 0 0
0 0 0
0 0 0
0 0 0
0 0 0
0 0 0
0 0 0
0 0 0
0 0 0
0 0 0
0 0 0
0 0 0
0 0 0
0 0 0
0 0 0
0 0 0
0 0 0
0 0 0
0 0 0
0 0 0
0 0 0
0 0 0
0 0 0
0 0 0
0 0 0
0 0 0
0 0 0
0 0 0
0 0 0
0 0 0
0 0 0
0 0 0
0 0 0
0 0 0
0 0 0
0 0 0
0 0 0
0 0 0
0 0 0
0 0 0
0 0 0
0 0 0
0 0 0
0 0 0
0 0 0
0 0 0
0 0 0
0 0 0
0 0 0
0 0 0
0 0 0
0 0 0
0 0 0
0 0 0
0 0 0
0 0 0
0 0 0
0 0 0
0 0 0
0 0 0
0 0 0
0 0 0
0 0 0
0 0 0
0 0 0
0 0 0
0 0 0
0 0 0
0 0 0
0 0 0
0 0 0
0 0 0
0 0 0
0 0 0
0 0 0
0 0 0
0 0 0
0 0 0
0 0 0
0 0 0
0 0 0
0 0 0
0 0 0
0 0 0
0 0 0
0 0 0
0 0 0
0 0 0
0 0 0
0 0 0
0 0 0
0 0 0
0 0 0
0 0 0
0 0 0
0 0 0
0 0 0
0 0 0
0 0 0
0 0 0
0 0 0
0 0 0
0 0 0
0 0 0
0 0 0
0 0 0
0 0 0
0 0 0
0 0 0
0 0 0
0 0 0
0 0 0
0 0 0
0 0 0
0 0 0
0 0 0
0 0 0
0 0 0
0 0 0
0 0 0
0 0 0
0 0 0
0 0 0
0 0 0
0 0 0
0 0 0
0 0 0
0 0 0
0 0 0
0 0 0
0 0 0
0 0 0
0 0 0
0 0 0
0 0 0
0 0 0
0 0 0
0 0 0
0 0 0
0 0 0
0 0 0
0 0 0
0 0 0
0 0 0
0 0 0
0 0 0
0 0 0
0 0 0
0 0 0
0 0 0
0 0 0
0 0 0
0 0 0
0 0 0
0 0 0
0 0 0
0 0 0
0 0 0
0 0 0
0 0 0
0 0 0
0 0 0
0 0 0
0 0 0
0 0 0
0 0 0
0 0 0
0 0 0
0 0 0
0 0 0
0 0 0
0 0 0
0 0 0
0 0 0
0 0 0
0 0 0
0 0 0
0 0 0
0 0 0
0 0 0
0 0 0
0 0 0
0 0 0
0 0 0
0 0 0
0 0 0
0 0 0
0 0 0
0 0 0
0 0 0
0 0 0
0 0 0
0 0 0
0 0 0
0 0 0
0 0 0
0 0 0
0 0 0
0 0 0
0 0 0
0 0 0
0 0 0
0 0 0
0 0 0
0 0 0
0 0 0
0 0 0
0 0 0
0 0 0
0 0 0
0 0 0
0 0 0
0 0 0
0 0 0
0 0 0
0 0 0
0 0 0
0 0 0
0 0 0
0 0 0
0 0 0
0 0 0
0 0 0
0 0 0
0 0 0
0 0 0
0 0 0
0 0 0
0 0 0
0 0 0
0 0 0
0 0 0
0 0 0
0 0 0
0 0 0
0 0 0
0 0 0
0 0 0
0 0 0
0 0 0
0 0 0
0 0 0
0 0 0
0 0 0
0 0 0
0 0 0
0 0 0
0 0 0
0 0 0
0 0 0
0 0 0
0 0 0
0 0 0
0 0 0
0 0 0
0 0 0
0 0 0
0 0 0
0 0 0
0 0 0
0 0 0
0 0 0
0 0 0
0 0 0
0 0 0
0 0 0
0 0 0
0 0 0
0 0 0
0 0 0
0 0 0
0 0 0
0 0 0
0 0 0
0 0 0
0 0 0
0 0 0
0 0 0
0 0 0
0 0 0
0 0 0
0 0 0
0 0 0
0 0 0
0 0 0
0 0 0
0 0 0
0 0 0
0 0 0
0 0 0
0 0 0
0 0 0
0 0 0
0 0 0
0 0 0
0 0 0
0 0 0
0 0 0
0 0 0
0 0 0
0 0 0
0 0 0
0 0 0
0 0 0
0 0 0
0 0 0
0 0 0
0 0 0
0 0 0
0 0 0
0 0 0
0 0 0
0 0 0
0 0 0
0 0 0
0 0 0
0 0 0
0 0 0
0 0 0
0 0 0
0 0 0
0 0 0
0 0 0
0 0 0
0 0 0
0 0 0
0 0 0
0 0 0
0 0 0
0 0 0
0 0 0
0 0 0
0 0 0
0 0 0
0 0 0
0 0 0
0 0 0
0 0 0
0 0 0
0 0 0
0 0 0
0 0 0
0 0 0
0 0 0
0 0 0
0 0 0
0 0 0
0 0 0
0 0 0
0 0 0
0 0 0
0 0 0
0 0 0
0 0 0
0 0 0
0 0 0
0 0 0
0 0 0
0 0 0
0 0 0
0 0 0
0 0 0
0 0 0
0 0 0
0 0 0
0 0 0
0 0 0
0 0 0
0 0 0
0 0 0
0 0 0
0 0 0
0 0 0
0 0 0
0 0 0
0 0 0
0 0 0
0 0 0
0 0 0
0 0 0
0 0 0
0 0 0
0 0 0
0 0 0
0 0 0
0 0 0
0 0 0
0 0 0
0 0 0
0 0 0
0 0 0
0 0 0
0 0 0
0 0 0
0 0 0
0 0 0
</DataArray>
<DataArray type="Float64" Name="cell vector length" format="ascii">
0 0 0 0 0 0 0 0 0 0 0 0 0 0 0 0 0 0 0 0 0 0 0 0 0 0 0 0 0 0 0 0 0 0 0 0 0 0 0 0 0 0 0 0 0 0 0 0 0 0 0 0 0 0 0 0 0 0 0 0 0 0 0 0 0 0 0 0 0 0 0 0 0 0 0 0 0 0 0 0 0 0 0 0 0 0 0 0 0 0 0 0 0 0 0 0 0 0 0 0 0 0 0 0 0 0 0 0 0 0 0 0 0 0 0 0 0 0 0 0 0 0 0 0 0 0 0 0 0 0 0 0 0 0 0 0 0 0 0 0 0 0 0 0 0 0 0 0 0 0 0 0 0 0 0 0 0 0 0 0 0 0 0 0 0 0 0 0 0 0 0 0 0 0 0 0 0 0 0 0 0 0 0 0 0 0 0 0 0 0 0 0 0 0 0 0 0 0 0 0 0 0 0 0 0 0 0 0 0 0 0 0 0 0 0 0 0 0 0 0 0 0 0 0 0 0 0 0 0 0 0 0 0 0 0 0 0 0 0 0 0 0 0 0 0 0 0 0 0 0 0 0 0 0 0 0 0 0 0 0 0 0 0 0 0 0 0 0 0 0 0 0 0 0 0 0 0 0 0 0 0 0 0 0 0 0 0 0 0 0 0 0 0 0 0 0 0 0 0 0 0 0 0 0 0 0 0 0 0 0 0 0 0 0 0 0 0 0 0 0 0 0 0 0 0 0 0 0 0 0 0 0 0 0 0 0 0 0 0 0 0 0 0 0 0 0 0 0 0 0 0 0 0 0 0 0 0 0 0 0 0 0 0 0 0 0 0 0 0 0 0 0 0 0 0 0 0 0 0 0 0 0 0 0 0 0 0 0 0 0 0 0 0 0 0 0 0 0 0 0 0 0 0 0 0 0 0 
</DataArray>
<DataArray type="Float64" Name="cell variable 4" format="ascii">
0.316217 0.000510187 0.657465 1.07467 0.249242 0.0032488 0.542818 0.94865 0.0505895 0.399988 0.23011 0.479217 0.23011 1.04461 0.573608 0.000586701 0.334198 0.0032488 0.573608 0.161465 0.27464 0.99432 0.511974 0.511974 0.000425284 0.495708 0.393381 0.00403603 0.0824302 0.163146 0.332003 0.626025 0.980966 0.626025 0.437452 0.161465 0.36504 0.184973 0.00760007 0.313432 0.252014 0.179448 0.187543 0.179448 0.626025 0.000319359 1.11547 0.434405 0.000705084 0.657465 0.848855 0.23011 0.442722 0.33356 0.673042 0.136507 1.06245 0.736473 1.11547 0.912892 0.573608 0.161465 0.187543 1.07467 0.736473 0.542818 1.12037 0.848855 0.130161 0.393247 0.00370628 0.503886 0.45141 0.118662 0.0976075 0.371127 0.000116047 0.0505895 0.45141 0.23011 0.442722 0.708918 0.495708 0.0032488 0.118662 0.399988 0.0824302 1.10185 1.14226 0.371127 0.184973 0.708918 0.36504 0.334198 0.980966 0.00273317 0.118662 0.919422 0.503886 0.163146 0.503886 1.04461 0.249242 0.313432 0.631062 0.919422 0.479217 0.0978407 0.434405 0.912892 0.542818 0.000306373 0.000157331 0.673042 0.184059 0.334198 0.542818 6.16323e-05 1.11547 0.789941 0.00403603 0.153908 0.399988 0.343308 0.393381 0.673042 0.179448 0.573608 0.99432 0.514292 0.514292 0.153908 0.789941 0.000705084 0.66381 0.136507 0.50937 0.0773391 1.04461 0.789941 0.184973 1.00681 1.12037 0.393247 0.187543 0.980966 0.66381 0.99432 0.32239 0.848855 0.0773391 0.980966 0.00151096 0.919422 1.00681 0.161465 0.23011 0.790107 0.542818 0.0032488 0.0097703 0.94865 0.848855 0.136507 0.187543 0.763876 0.657465 0.0505895 0.184973 0.36504 0.27464 0.184973 0.00403603 0.371127 0.163146 0.313432 1.00681 1.00681 0.130161 0.0824302 1.12037 0.179448 0.00760007 0.657465 0.00103121 0.437452 0.657465 1.11547 0.313432 0.136507 0.23011 0.0646441 1.07467 0.399988 0.50937 0.000209614 0.94865 0.0773391 0.8063 0.0773391 0.790107 0.393247 0.161465 0.657465 0.631062 0.50937 0.45141 0.00760007 8.68069e-05 0.442722 0.514292 0.673042 0.631062 0.495708 0.0773391 0.153908 0.316217 0.136507 0.184973 0.00403603 0.252014 0.316217 0.434405 0.0824302 0.000306373 0.8063 0.511974 0.332003 0.0978407 0.763876 0.000157331 0.90618 0.27464 0.187543 0.000510187 0.0646441 1.10185 0.479217 0.00370628 0.631062 0.184059 0.187543 0.343308 0.32239 0.32239 0.399988 0.90618 0.736473 0.153908 0.0032488 0.00760007 0.393247 0.626025 0.36504 0.316217 0.763876 1.10185 0.27464 0.0097703 0.437452 0.32239 0.514292 0.184059 0.45141 0.36504 0.27464 0.0978407 0.0505895 0.437452 0.919422 0.000319359 0.789941 0.136507 0.542818 0.153908 0.000586701 0.136507 0.631062 0.184973 0.0505895 0.187543 0.736473 0.00370628 0.00103121 0.00103121 0.631062 0.00760007 0.343308 0.50937 0.0097703 0.0505895 0.23011 0.94865 0.0978407 0.332003 0.0032488 0.0646441 0.184973 0.66381 0.673042 0.912892 0.790107 0.153908 0.179448 0.0646441 0.118662 0.33356 0.00145277 0.161465 0.90618 0.631062 0.542818 1.12037 1.07467 0.912892 0.153908 0.130161 1.11547 0.980966 0.8063 0.0824302 0.32239 0.161465 0.399988 0.332003 0.118662 0.153908 1.14226 0.573608 0.33356 0.163146 0.0824302 0.708918 0.252014 0.626025 0.479217 0.90618 0.495708 0.36504 0.118662 0.542818 0.249242 0.130161 0.393381 0.000425284 1.06245 0.187543 0.848855 0.33356 0.434405 0.657465 0.573608 0.919422 0.442722 0.399988 0.252014 0.514292 0.8063 0.00273317 1.14226 0.000319359 0.343308 0.313432 0.919422 0.919422 0.763876 0.00145277 0.313432 0.789941 1.11547 0.00370628 0.442722 0.0773391 1.10185 0.23011 0.790107 0.136507 0.184059 0.673042 0.00370628 0.66381 0.511974 1.06245 0.514292 0.0976075 0.00151096 0.252014 0.249242 1.14226 0.631062 0.626025 1.04461 0.179448 0.371127 0.334198 0.919422 0.00151096 0.511974 1.06245 0.161465 0.0505895 0.00103121 0.343308 0.163146 0.763876 0.66381 0.790107 
</DataArray>
<DataArray type="Float64" Name="cell variable 5" format="ascii">
0.0909148 0.999974 0.0226112 0.00858434 0.138655 0.998946 0.0328244 0.0109898 0.796223 0.0588268 0.158855 0.0417277 0.158855 0.00908091 0.0294962 0.999966 0.082177 0.998946 0.0294962 0.277231 0.117059 0.0100133 0.0367488 0.0367488 0.999982 0.0391044 0.0606986 0.998374 0.595425 0.273099 0.0831765 0.0248813 0.0102849 0.0248813 0.0496613 0.277231 0.0698059 0.226167 0.994257 0.0923878 0.136034 0.236958 0.221374 0.236958 0.0248813 0.99999 0.00797274 0.0503251 0.99995 0.0226112 0.0136882 0.158855 0.0485429 0.0824658 0.021599 0.349234 0.00878122 0.0181031 0.00797274 0.0118572 0.0294962 0.277231 0.221374 0.00858434 0.0181031 0.0328244 0.00790366 0.0136882 0.371169 0.0607373 0.998628 0.037893 0.0467791 0.415271 0.512105 0.0676886 0.999999 0.796223 0.0467791 0.158855 0.0485429 0.0195097 0.0391044 0.998946 0.415271 0.0588268 0.595425 0.00816951 0.00760594 0.0676886 0.226167 0.0195097 0.0698059 0.082177 0.0102849 0.999254 0.415271 0.0116913 0.037893 0.273099 0.037893 0.00908091 0.138655 0.0923878 0.0244954 0.0116913 0.0417277 0.510913 0.0503251 0.0118572 0.0328244 0.999991 0.999998 0.021599 0.227907 0.082177 0.0328244 1 0.00797274 0.0157727 0.998374 0.296844 0.0588268 0.0782104 0.0606986 0.021599 0.236958 0.0294962 0.0100133 0.0364304 0.0364304 0.296844 0.0157727 0.99995 0.0221905 0.349234 0.0371116 0.62573 0.00908091 0.0157727 0.226167 0.00976872 0.00790366 0.0607373 0.221374 0.0102849 0.0221905 0.0100133 0.0877689 0.0136882 0.62573 0.0102849 0.999772 0.0116913 0.00976872 0.277231 0.158855 0.0157662 0.0328244 0.998946 0.990544 0.0109898 0.0136882 0.349234 0.221374 0.016849 0.0226112 0.796223 0.226167 0.0698059 0.117059 0.226167 0.998374 0.0676886 0.273099 0.0923878 0.00976872 0.00976872 0.371169 0.595425 0.00790366 0.236958 0.994257 0.0226112 0.999894 0.0496613 0.0226112 0.00797274 0.0923878 0.349234 0.158855 0.705275 0.00858434 0.0588268 0.0371116 0.999996 0.0109898 0.62573 0.0151488 0.62573 0.0157662 0.0607373 0.277231 0.0226112 0.0244954 0.0371116 0.0467791 0.994257 0.999999 0.0485429 0.0364304 0.021599 0.0244954 0.0391044 0.62573 0.296844 0.0909148 0.349234 0.226167 0.998374 0.136034 0.0909148 0.0503251 0.595425 0.999991 0.0151488 0.0367488 0.0831765 0.510913 0.016849 0.999998 0.0120314 0.117059 0.221374 0.999974 0.705275 0.00816951 0.0417277 0.998628 0.0244954 0.227907 0.221374 0.0782104 0.0877689 0.0877689 0.0588268 0.0120314 0.0181031 0.296844 0.998946 0.994257 0.0607373 0.0248813 0.0698059 0.0909148 0.016849 0.00816951 0.117059 0.990544 0.0496613 0.0877689 0.0364304 0.227907 0.0467791 0.0698059 0.117059 0.510913 0.796223 0.0496613 0.0116913 0.99999 0.0157727 0.349234 0.0328244 0.296844 0.999966 0.349234 0.0244954 0.226167 0.796223 0.221374 0.0181031 0.998628 0.999894 0.999894 0.0244954 0.994257 0.0782104 0.0371116 0.990544 0.796223 0.158855 0.0109898 0.510913 0.0831765 0.998946 0.705275 0.226167 0.0221905 0.021599 0.0118572 0.0157662 0.296844 0.236958 0.705275 0.415271 0.0824658 0.999789 0.277231 0.0120314 0.0244954 0.0328244 0.00790366 0.00858434 0.0118572 0.296844 0.371169 0.00797274 0.0102849 0.0151488 0.595425 0.0877689 0.277231 0.0588268 0.0831765 0.415271 0.296844 0.00760594 0.0294962 0.0824658 0.273099 0.595425 0.0195097 0.136034 0.0248813 0.0417277 0.0120314 0.0391044 0.0698059 0.415271 0.0328244 0.138655 0.371169 0.0606986 0.999982 0.00878122 0.221374 0.0136882 0.0824658 0.0503251 0.0226112 0.0294962 0.0116913 0.0485429 0.0588268 0.136034 0.0364304 0.0151488 0.999254 0.00760594 0.99999 0.0782104 0.0923878 0.0116913 0.0116913 0.016849 0.999789 0.0923878 0.0157727 0.00797274 0.998628 0.0485429 0.62573 0.00816951 0.158855 0.0157662 0.349234 0.227907 0.021599 0.998628 0.0221905 0.0367488 0.00878122 0.0364304 0.512105 0.999772 0.136034 0.138655 0.00760594 0.0244954 0.0248813 0.00908091 0.236958 0.0676886 0.082177 0.0116913 0.999772 0.0367488 0.00878122 0.277231 0.796223 0.999894 0.0782104 0.273099 0.016849 0.0221905 0.0157662 
</DataArray>
<DataArray type="Float64" Name="cell variable 6" format="ascii">
0.0038835 1.00883 8.84138e-05 5.3719e-06 0.0566856 1.00681 0.000251962 1.10661e-05 0.900072 0.00127682 0.0671729 0.00051123 0.0671729 6.33494e-06 0.000187165 1.00878 0.00576492 1.00681 0.000187165 0.298329 0.02163 8.43313e-06 0.00035504 0.00035504 1.00889 0.000410215 0.00151522 1.00605 0.752638 0.294057 0.00364689 0.000115922 9.11938e-06 0.000115922 0.000885689 0.298329 0.0019794 0.208208 1.00277 0.00439847 0.0441278 0.235078 0.185318 0.235078 0.000115922 1.00896 4.32387e-06 0.000857904 1.0087 8.84138e-05 2.09522e-05 0.0671729 0.000858618 0.00403961 7.76673e-05 0.432355 5.74138e-06 4.69278e-05 4.32387e-06 1.38076e-05 0.000187165 0.298329 0.185318 5.3719e-06 4.69278e-05 0.000251962 4.21468e-06 2.09522e-05 0.477444 0.00202135 1.00642 0.000380196 0.000696942 0.533485 0.67289 0.0019189 1.0091 0.900072 0.000696942 0.0671729 0.000858618 5.81379e-05 0.000410215 1.00681 0.533485 0.00127682 0.752638 4.64493e-06 3.76475e-06 0.0019189 0.208208 5.81379e-05 0.0019794 0.00576492 9.11938e-06 1.00716 0.533485 1.32528e-05 0.000380196 0.294057 0.000380196 6.33494e-06 0.0566856 0.00439847 0.000110922 1.32528e-05 0.00051123 0.674122 0.000857904 1.38076e-05 0.000251962 1.00897 1.00907 7.76673e-05 0.235443 0.00576492 0.000251962 1.00913 4.32387e-06 3.156e-05 1.00605 0.3398 0.00127682 0.00310284 0.00151522 7.76673e-05 0.235078 0.000187165 8.43313e-06 0.000349016 0.000349016 0.3398 3.156e-05 1.0087 8.3838e-05 0.432355 0.000394946 0.780596 6.33494e-06 3.156e-05 0.208208 7.8448e-06 4.21468e-06 0.00202135 0.185318 9.11938e-06 8.3838e-05 8.43313e-06 0.00628005 2.09522e-05 0.780596 9.11938e-06 1.00816 1.32528e-05 7.8448e-06 0.298329 0.0671729 3.15261e-05 0.000251962 1.00681 1.00014 1.10661e-05 2.09522e-05 0.432355 0.185318 3.81646e-05 8.84138e-05 0.900072 0.208208 0.0019794 0.02163 0.208208 1.00605 0.0019189 0.294057 0.00439847 7.8448e-06 7.8448e-06 0.477444 0.752638 4.21468e-06 0.235078 1.00277 8.84138e-05 1.00849 0.000885689 8.84138e-05 4.32387e-06 0.00439847 0.432355 0.0671729 0.841792 5.3719e-06 0.00127682 0.000394946 1.00904 1.10661e-05 0.780596 2.80904e-05 0.780596 3.15261e-05 0.00202135 0.298329 8.84138e-05 0.000110922 0.000394946 0.000696942 1.00277 1.00912 0.000858618 0.000349016 7.76673e-05 0.000110922 0.000410215 0.780596 0.3398 0.0038835 0.432355 0.208208 1.00605 0.0441278 0.0038835 0.000857904 0.752638 1.00897 2.80904e-05 0.00035504 0.00364689 0.674122 3.81646e-05 1.00907 1.4406e-05 0.02163 0.185318 1.00883 0.841792 4.64493e-06 0.00051123 1.00642 0.000110922 0.235443 0.185318 0.00310284 0.00628005 0.00628005 0.00127682 1.4406e-05 4.69278e-05 0.3398 1.00681 1.00277 0.00202135 0.000115922 0.0019794 0.0038835 3.81646e-05 4.64493e-06 0.02163 1.00014 0.000885689 0.00628005 0.000349016 0.235443 0.000696942 0.0019794 0.02163 0.674122 0.900072 0.000885689 1.32528e-05 1.00896 3.156e-05 0.432355 0.000251962 0.3398 1.00878 0.432355 0.000110922 0.208208 0.900072 0.185318 4.69278e-05 1.00642 1.00849 1.00849 0.000110922 1.00277 0.00310284 0.000394946 1.00014 0.900072 0.0671729 1.10661e-05 0.674122 0.00364689 1.00681 0.841792 0.208208 8.3838e-05 7.76673e-05 1.38076e-05 3.15261e-05 0.3398 0.235078 0.841792 0.533485 0.00403961 1.00814 0.298329 1.4406e-05 0.000110922 0.000251962 4.21468e-06 5.3719e-06 1.38076e-05 0.3398 0.477444 4.32387e-06 9.11938e-06 2.80904e-05 0.752638 0.00628005 0.298329 0.00127682 0.00364689 0.533485 0.3398 3.76475e-06 0.000187165 0.00403961 0.294057 0.752638 5.81379e-05 0.0441278 0.000115922 0.00051123 1.4406e-05 0.000410215 0.0019794 0.533485 0.000251962 0.0566856 0.477444 0.00151522 1.00889 5.74138e-06 0.185318 2.09522e-05 0.00403961 0.000857904 8.84138e-05 0.000187165 1.32528e-05 0.000858618 0.00127682 0.0441278 0.000349016 2.80904e-05 1.00716 3.76475e-06 1.00896 0.00310284 0.00439847 1.32528e-05 1.32528e-05 3.81646e-05 1.00814 0.00439847 3.156e-05 4.32387e-06 1.00642 0.000858618 0.780596 4.64493e-06 0.0671729 3.15261e-05 0.432355 0.235443 7.76673e-05 1.00642 8.3838e-05 0.00035504 5.74138e-06 0.000349016 0.67289 1.00816 0.0441278 0.0566856 3.76475e-06 0.000110922 0.000115922 6.33494e-06 0.235078 0.0019189 0.00576492 1.32528e-05 1.00816 0.00035504 5.74138e-06 0.298329 0.900072 1.00849 0.00310284 0.294057 3.81646e-05 8.3838e-05 3.15261e-05 
</DataArray>
<DataArray type="Float64" Name="cell variable 7" format="ascii">
0.357275 0.805214 0.176526 0.0863829 0.413855 0.731648 0.214434 0.109939 0.667622 0.285858 0.46057 0.24144 0.46057 0.091923 0.203114 0.789622 0.334908 0.731648 0.203114 0.543895 0.399197 0.10127 0.2268 0.2268 0.777768 0.233945 0.290041 0.781706 0.652741 0.531783 0.340125 0.185875 0.103782 0.185875 0.262734 0.543895 0.311423 0.488241 0.695937 0.360012 0.422896 0.481302 0.511928 0.481302 0.185875 0.786592 0.0788486 0.264653 0.790771 0.176526 0.129973 0.46057 0.259721 0.337987 0.172124 0.58017 0.0886341 0.15552 0.0788486 0.116913 0.203114 0.543895 0.511928 0.0863829 0.15552 0.214434 0.0779382 0.129973 0.557964 0.288948 0.736426 0.230311 0.255368 0.633332 0.58928 0.306453 0.821805 0.667622 0.255368 0.46057 0.259721 0.162493 0.233945 0.731648 0.633332 0.285858 0.652741 0.0813708 0.0738515 0.306453 0.488241 0.162493 0.311423 0.334908 0.103782 0.786302 0.633332 0.115625 0.230311 0.531783 0.230311 0.091923 0.413855 0.360012 0.184332 0.115625 0.24144 0.570965 0.264653 0.116913 0.214434 0.774006 0.802201 0.172124 0.426674 0.334908 0.214434 0.804393 0.0788486 0.142859 0.781706 0.544906 0.285858 0.329428 0.290041 0.172124 0.481302 0.203114 0.10127 0.225806 0.225806 0.544906 0.142859 0.790771 0.174715 0.58017 0.227704 0.646851 0.091923 0.142859 0.488241 0.0989326 0.0779382 0.288948 0.511928 0.103782 0.174715 0.10127 0.347352 0.129973 0.646851 0.103782 0.723507 0.115625 0.0989326 0.543895 0.46057 0.142821 0.214434 0.731648 0.724735 0.109939 0.129973 0.58017 0.511928 0.148901 0.176526 0.667622 0.488241 0.311423 0.399197 0.488241 0.781706 0.306453 0.531783 0.360012 0.0989326 0.0989326 0.557964 0.652741 0.0779382 0.481302 0.695937 0.176526 0.74517 0.262734 0.176526 0.0788486 0.360012 0.58017 0.46057 0.663687 0.0863829 0.285858 0.227704 0.803638 0.109939 0.646851 0.139181 0.646851 0.142821 0.288948 0.543895 0.176526 0.184332 0.227704 0.255368 0.695937 0.812727 0.259721 0.225806 0.172124 0.184332 0.233945 0.646851 0.544906 0.357275 0.58017 0.488241 0.781706 0.422896 0.357275 0.264653 0.652741 0.774006 0.139181 0.2268 0.340125 0.570965 0.148901 0.802201 0.118245 0.399197 0.511928 0.805214 0.663687 0.0813708 0.24144 0.736426 0.184332 0.426674 0.511928 0.329428 0.347352 0.347352 0.285858 0.118245 0.15552 0.544906 0.731648 0.695937 0.288948 0.185875 0.311423 0.357275 0.148901 0.0813708 0.399197 0.724735 0.262734 0.347352 0.225806 0.426674 0.255368 0.311423 0.399197 0.570965 0.667622 0.262734 0.115625 0.786592 0.142859 0.58017 0.214434 0.544906 0.789622 0.58017 0.184332 0.488241 0.667622 0.511928 0.15552 0.736426 0.74517 0.74517 0.184332 0.695937 0.329428 0.227704 0.724735 0.667622 0.46057 0.109939 0.570965 0.340125 0.731648 0.663687 0.488241 0.174715 0.172124 0.116913 0.142821 0.544906 0.481302 0.663687 0.633332 0.337987 0.822606 0.543895 0.118245 0.184332 0.214434 0.0779382 0.0863829 0.116913 0.544906 0.557964 0.0788486 0.103782 0.139181 0.652741 0.347352 0.543895 0.285858 0.340125 0.633332 0.544906 0.0738515 0.203114 0.337987 0.531783 0.652741 0.162493 0.422896 0.185875 0.24144 0.118245 0.233945 0.311423 0.633332 0.214434 0.413855 0.557964 0.290041 0.777768 0.0886341 0.511928 0.129973 0.337987 0.264653 0.176526 0.203114 0.115625 0.259721 0.285858 0.422896 0.225806 0.139181 0.786302 0.0738515 0.786592 0.329428 0.360012 0.115625 0.115625 0.148901 0.822606 0.360012 0.142859 0.0788486 0.736426 0.259721 0.646851 0.0813708 0.46057 0.142821 0.58017 0.426674 0.172124 0.736426 0.174715 0.2268 0.0886341 0.225806 0.58928 0.723507 0.422896 0.413855 0.0738515 0.184332 0.185875 0.091923 0.481302 0.306453 0.334908 0.115625 0.723507 0.2268 0.0886341 0.543895 0.667622 0.74517 0.329428 0.531783 0.148901 0.174715 0.142821 
</DataArray>
<DataArray type="Float64" Name="cell variable 8" format="ascii">