<VTKFile type="UnstructuredGrid" version="0.1">
<UnstructuredGrid>
<Piece  NumberOfPoints="    3359" NumberOfCells="    2466">
<Points>
<DataArray type="Float64" NumberOfComponents="3" format="ascii">
-35.3656 42.7517 0 
10.666 9.57645 0 
-11.6565 -13.7019 0 
22.3522 -35.4713 0 
-60.4395 -1.67692 0 
-46.2774 21.6629 0 
11.1314 -53.0277 0 
-23.764 -57.7065 0 
-0.0182835 -63.5351 0 
1.92513 -33.1346 0 
16.7308 -1.51168 0 
-4.07578 -41.9755 0 
-17.5777 51.1937 0 
34.1673 -30.7104 0 
17.4903 17.3462 0 
-13.3829 -52.8075 0 
-26.1499 22.6831 0 
-7.7194 22.024 0 
-36.9022 -47.4458 0 
39.6248 -23.4096 0 
-4.90223 34.6708 0 
49.9626 -26.9927 0 
33.9591 -0.307949 0 
7.20505 0.694285 0 
1.4931 -38.8077 0 
-15.2029 14.439 0 
-32.2385 -39.8261 0 
-17.2246 38.5283 0 
-58.2715 -4.9988 0 
-0.109823 -27.4347 0 
1.9715 -23.0589 0 
54.9941 28.2533 0 
-26.878 41.3394 0 
-36.3606 -2.47296 0 
-35.7418 -18.1614 0 
-15.2086 -52.4068 0 
-16.9228 44.37 0 
39.5319 19.1745 0 
-7.09351 5.5372 0 
13.5007 -58.4891 0 
-19.9614 -24.9981 0 
-56.7061 -14.1271 0 
-0.470336 -12.9835 0 
60.1541 19.5793 0 
39.3176 11.745 0 
-6.66505 29.2153 0 
-15.5704 -0.961565 0 
-34.5993 41.1703 0 
6.87828 26.5097 0 
-5.21387 -54.0865 0 
60.2742 -7.70038 0 
-1.10665 -39.1333 0 
-31.7163 -11.621 0 
24.8931 2.94467 0 
-31.8224 -30.1278 0 
-54.6006 8.66672 0 
21.4599 22.8259 0 
27.7617 32.3795 0 
16.7499 -33.695 0 
7.26235 53.1855 0 
-32.9807 41.0145 0 
-44.2391 0.713998 0 
-6.25198 -54.5516 0 
51.9061 -33.5631 0 
-13.886 30.4947 0 
-16.8444 -41.9144 0 
30.3213 39.0486 0 
-30.4733 -46.8315 0 
30.0825 -22.1413 0 
-22.77 15.4764 0 
18.272 -4.99234 0 
-21.9585 46.7277 0 
28.2127 -44.6676 0 
44.5066 -16.2261 0 
22.5172 3.41699 0 
23.4823 -4.16014 0 
31.1196 -34.4693 0 
-40.2911 -41.1177 0 
-37.6956 39.1708 0 
44.0186 14.4362 0 
-43.2486 0.084984 0 
37.8224 -48.9381 0 
-12.9426 -13.1168 0 
-17.6259 -53.9142 0 
-41.3673 20.3733 0 
1.03601 33.2531 0 
38.832 13.2245 0 
-33.2444 13.7918 0 
-58.6519 11.18 0 
-47.6026 -12.3417 0 
2.54763 -61.0721 0 
-36.6008 -36.1832 0 
30.1672 41.2162 0 
9.03337 15.9716 0 
37.0321 -49.8729 0 
29.7385 27.3501 0 
38.7696 -2.96784 0 
-27.9954 51.5904 0 
49.6889 21.9672 0 
14.5652 -45.0918 0 
8.72419 -37.7293 0 
42.4414 -6.4946 0 
-18.8224 30.3898 0 
-19.3297 -5.76593 0 
41.5322 -4.625 0 
-17.9423 -0.859845 0 
-22.2178 -47.8622 0 
40.1411 -3.46722 0 
22.0561 -39.5751 0 
51.0337 -15.1637 0 
9.18805 -53.9311 0 
-22.3143 16.038 0 
-48.6535 37.488 0 
31.5173 52.5799 0 
20.4674 -47.8543 0 
-0.404431 -18.4699 0 
-40.9579 -37.859 0 
9.59554 -32.1495 0 
-7.08108 -29.6286 0 
50.0233 -6.63297 0 
40.3068 9.37235 0 
9.08277 -0.988523 0 
-31.6107 16.2729 0 
-0.767165 15.8373 0 
31.5813 -37.2948 0 
-44.7467 -45.8075 0 
-20.5074 -27.6423 0 
23.2245 13.9713 0 
-55.9671 -20.1099 0 
-52.8348 17.974 0 
28.0788 -50.6815 0 
-29.1446 -2.1369 0 
14.1093 6.13791 0 
-16.1425 -23.8631 0 
49.0153 -29.0808 0 
12.4064 -58.606 0 
43.4011 -7.62683 0 
44.5592 -37.2661 0 
6.7601 11.2149 0 
-51.306 -3.64415 0 
22.4888 35.2777 0 
-38.2064 7.83746 0 
15.0551 29.861 0 
-7.51312 21.8643 0 
-42.7515 9.12739 0 
3.8611 42.1912 0 
25.6299 51.235 0 
30.3318 -34.3234 0 
54.852 29.4086 0 
17.2007 55.1842 0 
22.3144 26.1032 0 
52.2944 15.9686 0 
-35.4696 -3.12721 0 
14.0935 -21.0968 0 
37.0425 -43.6469 0 
28.326 47.0617 0 
11.285 25.0926 0 
25.6687 16.1345 0 
-32.0814 27.1212 0 
10.5329 46.9441 0 
-29.3621 -4.99153 0 
-16.7617 -19.1213 0 
-42.2513 -23.1888 0 
18.4291 -40.0239 0 
46.6141 13.1447 0 
29.2129 -9.26057 0 
32.2368 43.8431 0 
22.7329 -23.7721 0 
2.09161 23.7168 0 
-22.605 -33.3128 0 
34.6976 9.67015 0 
-34.9585 21.3801 0 
-45.3114 19.3163 0 
-16.369 -34.5138 0 
7.83676 -10.6703 0 
-12.4438 25.3425 0 
-18.4162 33.6923 0 
-35.8621 4.25765 0 
30.8193 38.4 0 
18.7874 -11.0847 0 
-35.0155 31.3443 0 
-53.8538 -26.5273 0 
-36.6207 -26.5672 0 
-3.15929 5.39341 0 
-14.8565 25.1033 0 
29.0871 -27.9864 0 
-48.0629 12.6273 0 
14.2992 38.817 0 
13.5728 -13.1388 0 
-36.5498 -17.0623 0 
31.8253 -37.6865 0 
20.9987 7.65271 0 
-52.8259 18.546 0 
-51.5352 -5.7887 0 
-35.2373 6.97862 0 
40.2188 -23.846 0 
7.69716 16.02 0 
-25.1029 13.0084 0 
4.53558 6.92215 0 
-22.4763 54.0935 0 
-13.7552 57.6605 0 
39.2411 -3.45748 0 
-19.1966 14.8694 0 
14.7662 39.5662 0 
-17.1356 -41.9058 0 
-1.81673 19.2961 0 
33.5206 -33.1331 0 
-18.3102 47.1107 0 
-2.39503 -6.66611 0 
-48.5618 24.0315 0 
-6.77999 -30.174 0 
-25.634 -42.262 0 
-12.3734 35.768 0 
13.3113 -53.2077 0 
8.54157 32.6465 0 
38.4873 -30.5575 0 
-43.1867 37.2152 0 
-5.37127 52.8119 0 
49.5088 -1.78858 0 
-6.18933 34.2113 0 
-18.1528 25.359 0 
-35.288 4.8678 0 
-11.1582 49.8739 0 
38.1038 26.1493 0 
15.8395 32.458 0 
23.8572 -41.8539 0 
38.4682 31.8425 0 
36.6524 -24.3777 0 
-40.7481 -12.3327 0 
-6.3889 30.4785 0 
-2.95673 26.3895 0 
21.316 -3.09849 0 
-39.4717 29.8311 0 
0.901597 -52.0531 0 
32.2851 -46.8252 0 
26.3217 -50.9834 0 
18.039 32.2049 0 
-11.0514 8.62216 0 
-31.7147 15.0038 0 
-27.4708 -21.9433 0 
-50.6609 -7.89115 0 
-2.07325 27.8334 0 
-24.7427 -9.04472 0 
-51.1037 -2.38125 0 
29.1184 -14.5855 0 
-41.7378 20.0679 0 
2.37627 16.5568 0 
-6.95538 -28.1669 0 
-12.5562 23.945 0 
-36.923 37.4175 0 
-12.89 -58.0553 0 
22.5213 -26.5928 0 
-46.9531 -24.128 0 
35.1884 -13.877 0 
9.17298 -26.8477 0 
-11.7825 -30.4365 0 
-39.1878 -8.1901 0 
13.336 -40.0011 0 
34.636 -2.41818 0 
-19.2396 -18.1921 0 
-27.1969 -41.7645 0 
-48.0249 -34.5217 0 
-34.2006 21.3899 0 
28.1805 -1.81154 0 
4.37784 -21.5029 0 
20.0528 -13.3049 0 
-11.7055 12.0539 0 
0.341448 55.5502 0 
16.3649 -53.2588 0 
35.6973 -18.5624 0 
-16.8769 35.0207 0 
-22.2803 -34.1264 0 
-31.9608 -48.7964 0 
52.01 26.4476 0 
20.2146 12.1771 0 
38.0381 38.403 0 
-20.6339 -28.6118 0 
-32.644 26.9206 0 
-24.7312 -51.1814 0 
-7.66043 -6.24202 0 
13.1409 48.0058 0 
-46.266 0.686957 0 
-13.3865 53.2046 0 
46.1531 41.9244 0 
0.610251 -58.3403 0 
38.2776 45.5976 0 
-10.0013 50.0885 0 
11.6904 42.029 0 
18.2677 -44.8191 0 
51.1966 7.72806 0 
-39.7213 -17.4397 0 
-5.96515 -32.1261 0 
-4.01305 22.3137 0 
-21.955 20.0629 0 
60.8767 8.10958 0 
53.9809 -10.6373 0 
-14.0362 -34.1998 0 
-0.706283 32.1705 0 
14.5014 47.7381 0 
-6.81817 -36.1801 0 
12.3697 57.2784 0 
8.97965 25.2927 0 
-8.92791 -37.0095 0 
-8.84661 56.347 0 
5.03261 52.9014 0 
-57.293 26.446 0 
9.59835 39.5236 0 
1.93374 16.9316 0 
42.677 28.0131 0 
27.3035 31.1321 0 
2.6779 45.8293 0 
-10.9573 43.1701 0 
-54.1918 4.73725 0 
15.9871 -33.6024 0 
18.2474 -6.18906 0 
-56.4725 0.747634 0 
-20.2444 15.5813 0 
-7.18557 -16.35 0 
35.7123 -12.0596 0 
43.3449 -42.1696 0 
29.2825 -27.1849 0 
36.2631 -8.0293 0 
-4.47702 50.3398 0 
28.2321 2.26476 0 
6.6266 -44.197 0 
-43.7367 42.1853 0 
-12.2099 -10.1057 0 
8.18098 -26.518 0 
22.132 -36.3807 0 
-30.3565 0.794029 0 
20.1987 -14.0311 0 
-44.2974 -36.8464 0 
-47.0374 -36.1169 0 
-29.6472 -31.0531 0 
22.3229 31.7189 0 
21.8307 -22.6094 0 
59.4586 -17.1611 0 
-49.7804 10.8914 0 
-50.9785 -7.55393 0 
-23.1875 19.0614 0 
-50.3188 32.1494 0 
-35.8651 -33.8591 0 
24.8513 -45.9377 0 
51.6325 8.18149 0 
49.4855 35.6381 0 
14.1993 47.7471 0 
-2.29448 21.196 0 
41.7307 -18.4311 0 
-10.4951 6.81832 0 
-22.9423 -57.4221 0 
-35.8816 39.9247 0 
-16.1472 -42.1939 0 
-18.0044 6.79563 0 
-2.92246 -6.63037 0 
8.49325 -13.4507 0 
-23.2275 39.8465 0 
-48.7558 26.5246 0 
45.1927 -36.9618 0 
-53.2629 15.7831 0 
15.9111 -36.1538 0 
-0.0706253 -47.0593 0 
-10.0031 -52.7609 0 
-47.031 -8.05554 0 
-23.0212 7.22879 0 
-52.1262 -9.607 0 
3.97635 19.6465 0 
-9.9121 41.9469 0 
50.5804 33.3051 0 
58.2273 20.913 0 
0.613202 -0.709677 0 
-2.14147 -22.4335 0 
-22.5201 -54.5658 0 
-0.420153 55.2417 0 
14.6837 35.557 0 
3.93667 -22.3191 0 
-40.4623 -39.0668 0 
36.7732 -41.9826 0 
0.380099 -39.3097 0 
-12.5096 13.5447 0 
3.69048 -6.59269 0 
32.4475 31.6693 0 
-29.6955 28.8891 0 
15.084 9.85478 0 
13.387 7.4211 0 
-17.4902 -61.2127 0 
-32.0624 18.4551 0 
43.2961 26.7636 0 
44.0043 -7.62761 0 
-10.438 36.5022 0 
-32.594 39.4709 0 
60.1166 -16.8169 0 
-5.88199 4.37004 0 
9.79646 33.4714 0 
58.0965 -1.93348 0 
19.2228 -9.71923 0 
-42.2939 2.32127 0 
-53.9158 -27.4698 0 
-35.3024 -22.0206 0 
-12.7768 35.4362 0 
53.1072 -5.94297 0 
41.0361 -29.7658 0 
-19.0564 -26.8021 0 
52.0414 -24.4016 0 
-57.466 19.4752 0 
2.18863 -34.0318 0 
-54.9942 0.780241 0 
32.8401 43.9324 0 
-26.1739 12.888 0 
-6.25397 -44.1906 0 
12.5842 23.1236 0 
-41.7071 12.6721 0 
38.7981 28.2199 0 
32.1325 20.7427 0 
-28.6992 21.4221 0 
-45.5402 18.8583 0 
-29.9899 -48.8228 0 
-6.47848 0.486545 0 
-0.0115509 10.1304 0 
-48.8037 -8.84319 0 
41.0769 -36.1865 0 
-35.0475 -43.0581 0 
22.0514 38.5776 0 
-45.7545 -37.1948 0 
26.2508 14.6215 0 
48.0832 20.3 0 
-59.5575 9.09469 0 
-42.2663 -27.4943 0 
-6.59925 -11.3511 0 
-39.9114 30.965 0 
8.48729 15.6674 0 
19.541 -31.2318 0 
36.7144 34.7534 0 
-46.7327 14.5386 0 
-11.4561 9.03515 0 
-22.9701 -1.11011 0 
16.6537 -21.9583 0 
-46.3299 -43.679 0 
6.67019 -7.3261 0 
-23.0326 35.191 0 
45.1013 1.27173 0 
-12.4267 -20.2516 0 
53.9712 4.09139 0 
-42.4174 -32.5905 0 
47.419 9.08168 0 
-41.5816 37.0998 0 
-27.3128 -22.8524 0 
19.1859 53.11 0 
-29.1455 -25.8071 0 
-13.1556 -20.141 0 
40.937 20.1884 0 
-40.9577 -16.8834 0 
52.1728 -7.04615 0 
-23.7199 47.4149 0 
1.96087 41.1831 0 
-14.1759 -52.3217 0 
20.9078 -22.6998 0 
19.2081 -31.444 0 
14.6727 -21.7901 0 
-5.87214 -43.569 0 
19.8909 10.99 0 
-39.1477 -12.0112 0 
-28.4057 -21.0902 0 
37.0796 46.3103 0 
-25.6666 33.3806 0 
-47.3921 14.1082 0 
13.2967 -25.2754 0 
15.742 38.4035 0 
35.6871 45.9421 0 
29.6037 27.824 0 
57.807 21.6605 0 
-32.6661 -11.9245 0 
8.41272 -54.7976 0 
16.6648 -27.8977 0 
11.4715 15.0949 0 
-14.8068 -62.1047 0 
-9.74698 -21.8044 0 
-1.06097 -23.2962 0 
41.6708 -28.8101 0 
16.262 -18.3229 0 
3.73 25.0784 0 
14.6165 38.3788 0 
-19.6151 53.8009 0 
14.3981 -21.2189 0 
-11.0161 -6.28779 0 
12.4627 -51.2026 0 
-8.30536 -5.78026 0 
-14.5455 -47.6201 0 
29.4387 -7.87652 0 
5.60617 -14.29 0 
-8.51316 -26.9298 0 
23.4537 2.51776 0 
37.5671 -44.7553 0 
-3.69272 34.6663 0 
38.242 18.2618 0 
[...]
<CellData Scalars="wall variable 0">
<DataArray type="Float64" Name="wall length" format="ascii">
1.01819 6.38145 2.12676 5.36052 2.26817 3.79174 1.04032 2.35262 3.07948 0.633484 3.5207 1.11645 6.31644 3.4439 6.91521 1.65624 1.19786 6.42399 5.08265 3.31473 5.06923 1.32485 2.62389 0.505754 7.13039 1.17948 3.24595 4.50174 1.6465 2.06816 3.56096 3.29054 0.71542 2.66491 7.96037 0.883415 3.18 5.19584 4.22646 0.52475 0.901349 7.70324 2.87731 5.53208 3.47342 5.24788 2.06816 0.262457 6.45426 1.03237 1.23839 1.16186 1.30825 2.22696 6.11835 3.82585 0.692411 2.88548 1.97001 3.02993 4.59598 0.594436 6.56292 1.16052 0.817958 3.3097 0.672857 4.25013 4.90688 1.85463 2.85084 2.93072 0.16375 7.39004 0.541919 8.83996 1.79511 1.40283 0.783269 8.09949 2.59203 1.15299 3.78901 1.15016 0.62695 2.27094 5.54858 4.42954 0.534517 3.33571 0.618447 5.514 1.07713 0.431116 6.25593 1.23105 4.1117 2.92228 3.25842 0.225724 6.82427 0.972991 6.13416 1.62325 2.98968 3.31439 2.75828 1.38888 2.15149 0.387698 3.46332 3.16214 1.92338 6.77339 1.72764 1.47664 0.685069 4.42954 3.50663 8.13718 1.19865 4.45766 3.02496 1.35925 2.01425 8.74686 0.300459 0.433451 0.554238 2.8661 2.03148 4.13253 1.36668 8.83245 0.188258 2.63267 5.35555 1.17079 2.09255 1.65001 9.67513 3.4626 6.15148 5.19981 1.11645 2.26625 1.55381 4.153 0.664989 1.10426 2.34162 0.917755 1.88664 6.13741 2.1143 4.36501 0.568426 4.93402 6.95761 0.756657 6.77339 2.53962 2.1049 7.78215 1.02483 2.95679 4.43219 0.964767 1.91108 2.69743 9.53838 2.43067 6.06694 2.062 1.30771 5.34053 2.53962 1.92338 2.54379 4.31079 5.0142 4.90931 4.34888 2.89484 3.08992 1.19914 1.39247 1.75995 6.47194 3.45504 4.11464 4.67911 2.92521 1.73294 7.43534 1.01641 10.5678 0.941314 7.62583 0.672857 0.487534 4.03811 2.78503 1.85678 1.776 2.2966 10.5678 1.76143 1.51377 7.69992 1.70877 0.752521 1.12528 4.57533 0.939604 1.04904 2.31029 2.54992 8.23143 0.237219 9.1857 1.27238 8.39891 0.484691 1.80635 0.902782 7.43534 6.29223 5.65365 0.178457 6.82856 1.29415 2.43067 1.87207 0.485503 4.30068 0.715647 2.45401 3.84309 3.91076 0.442417 1.17079 7.13791 1.53695 0.391876 3.52437 5.67209 3.52904 7.61973 4.13253 2.19528 3.76025 3.8993 0.983762 3.15366 3.25536 5.80774 1.91108 1.27591 5.91975 3.24448 4.30068 4.01699 5.17733 6.75732 3.08992 0.207137 1.29415 1.32438 3.13583 3.2271 1.4782 6.06694 7.69992 6.52925 1.24815 4.5335 0.556275 7.20366 2.37297 1.14305 2.79699 4.84927 0.736055 10.9633 0.927811 1.14305 0.790402 9.04408 2.0129 7.04979 5.34413 0.95318 1.04032 5.15948 1.72869 0.652504 6.72679 2.11994 3.5931 5.33679 2.50101 4.93883 2.87731 0.497221 1.64424 8.38888 5.17369 2.59275 4.41837 0.25916 2.21562 7.46717 1.01997 4.11464 1.23225 2.93708 1.35512 8.9826 3.89215 6.23731 2.85846 3.93112 0.906193 6.31113 3.75037 0.387454 3.48608 3.31439 1.45553 2.40613 6.17707 2.51295 3.84309 1.54681 1.49104 3.46332 6.89592 1.87207 5.34053 0.610455 3.85245 7.17941 4.07457 1.08743 0.818677 1.00118 8.97826 1.70725 2.60633 6.15741 3.68397 6.12158 5.12625 2.91089 9.04408 2.05743 7.6352 0.748896 1.48196 1.18257 4.84927 1.56944 3.50663 6.25593 0.902447 2.89219 1.00218 3.42611 0.980247 2.54992 4.69356 5.20137 2.68096 3.78706 1.15016 0.764221 6.63087 0.779614 3.29287 7.26555 2.3059 8.18942 1.37389 2.33933 9.28388 4.41837 5.20563 6.15741 2.10281 1.04358 0.680206 5.9341 0.883415 4.94281 0.999497 2.50142 5.42535 3.19156 6.39614 0.308641 2.49694 4.32113 1.5939 1.95564 2.57904 10.1662 1.48196 10.0718 1.15237 0.320933 0.979231 4.35162 1.86318 1.55381 1.36526 6.46869 0.980604 5.91312 3.25842 4.97602 5.64998 1.74283 0.859508 2.78133 3.35885 0.459871 2.10644 6.63485 2.00767 1.23832 2.86989 1.61513 3.05095 5.72559 1.47664 7.72267 3.84146 0.487232 4.8421 5.71037 6.01584 1.33471 4.90688 1.40638 4.29245 4.43219 8.71748 1.82805 10.1178 1.03237 8.43238 1.49104 4.1549 3.61631 4.6432 0.664348 5.40493 3.75122 3.53439 4.34276 2.10281 2.60633 1.11556 2.91074 1.27228 7.68666 4.8421 1.84646 1.80635 3.15312 2.91074 5.7971 2.93072 5.72562 4.85453 2.97947 2.76817 2.97657 2.88548 4.30343 1.0302 0.85767 6.74301 2.69298 9.07872 2.315 0.385729 5.78028 0.673864 1.66152 2.81739 4.31079 1.21478 4.58252 5.75191 0.680206 0.206499 6.95673 1.94719 0.541919 0.371117 0.699826 1.08743 6.27276 1.65062 0.378627 3.10173 4.69918 4.36501 5.75219 0.513499 0.207137 2.89484 5.20833 3.54659 0.394085 9.66825 1.98624 5.54858 4.52871 0.616171 2.20765 1.38319 0.489565 6.81558 0.751549 6.12158 0.790402 2.37297 4.9317 4.71493 0.587855 6.20708 6.56292 4.6432 4.99204 1.3702 4.44194 0.592361 1.23839 4.54971 5.15666 5.23533 3.04101 2.69755 0.30726 3.69154 3.56869 3.53846 1.8292 9.07872 1.00242 6.29223 1.73294 2.71897 0.454447 1.05032 8.92299 1.2805 0.764981 3.08553 3.36289 1.23058 4.30333 6.13416 5.54367 2.85395 0.45947 4.25013 7.62583 2.92646 1.34663 1.16186 0.592361 4.81554 1.23058 5.56523 1.30313 6.95761 1.00881 0.88848 5.36052 3.12233 0.61305 1.38319 5.83641 1.90957 1.73987 2.7041 6.9646 0.406184 8.286 0.659303 0.749069 4.39183 3.05095 3.43202 0.923697 4.67911 1.01997 1.71932 1.44721 0.350799 0.476799 9.29196 1.63856 4.38899 0.770037 0.564095 4.23288 8.286 0.62695 7.26555 0.596148 4.72982 4.19254 0.465892 4.10214 4.56117 5.29558 7.71725 1.15217 7.61973 1.82274 4.10614 1.00881 4.93402 1.39788 3.25681 6.59958 2.85046 0.695822 1.00326 6.83316 2.88932 1.32812 0.999497 1.22647 5.22034 0.585734 6.84999 5.44698 6.27341 0.39301 3.25681 1.06276 2.53765 1.71932 8.9826 2.1482 3.03081 6.02814 5.15948 6.31644 5.19981 0.577821 0.628814 2.93133 4.7869 0.607458 2.05743 2.79699 0.927811 2.94579 3.01581 7.16022 6.13254 5.19584 0.599809 8.24337 6.27276 4.07457 0.454105 0.320933 0.490061 4.09746 0.188258 1.68351 0.757682 6.81697 5.61396 0.442417 8.07923 1.00805 4.87513 0.842958 2.55686 0.535417 2.09255 4.0557 8.39891 2.27987 3.95388 3.00081 1.62325 4.30333 4.81554 4.44194 6.52204 5.75191 1.71158 0.369552 3.01581 3.18 5.9341 0.651761 8.38888 3.64884 0.753745 1.65624 4.23591 4.29397 0.308641 2.71548 5.04028 0.94063 5.57884 3.05541 7.08465 1.93454 3.24594 3.49 1.76364 0.151393 7.71907 2.22295 3.50717 5.64998 7.54919 4.55749 0.698896 5.2579 4.04247 1.35601 0.451369 9.66825 2.36845 0.618629 1.40111 7.12142 2.294 6.61208 4.28243 0.246489 7.7802 1.09956 6.96452 0.637291 4.76099 3.06908 2.4236 3.91076 2.51295 3.96259 1.77701 8.07923 1.80317 4.57533 3.86514 1.44305 5.68734 4.75686 5.91446 1.21086 2.67476 1.60852 2.45004 0.638777 0.279512 4.15271 7.42902 9.63106 1.38931 6.30789 3.04101 0.22158 0.888505 0.838999 9.42302 3.92233 0.704597 2.69755 6.30789 4.68004 2.7342 4.73115 4.33586 3.43202 1.61513 0.296459 6.70672 2.58406 3.37975 5.33679 6.72953 2.37719 3.20225 6.96452 0.858775 6.82427 0.582892 4.07956 2.21566 4.06425 1.74609 1.03093 1.36485 1.43145 1.22055 5.61377 2.45733 6.09494 1.04358 7.68666 2.17554 1.78159 0.979231 4.63648 0.25916 1.69354 2.58406 3.04564 3.49 6.95827 3.94123 4.52871 2.27094 0.465892 7.4914 2.88795 3.42563 0.85767 4.68607 0.385729 6.9675 3.37255 9.36418 0.371117 8.09949 1.92718 5.21275 3.80921 2.88739 1.73987 0.443111 5.64025 2.35114 3.19156 1.33581 2.93393 3.9801 4.22445 2.38432 6.59632 0.980604 3.50717 3.27924 6.75732 1.36686 3.72378 1.51322 5.47205 2.12623 1.19914 3.80921 6.0037 2.89652 8.30345 3.32855 6.49009 1.1682 0.652504 3.37975 1.69354 0.497022 1.68351 9.67513 0.984523 1.95793 0.831073 7.42902 0.568567 4.35492 6.55544 0.939604 1.80317 6.28786 2.28908 0.587779 0.97655 2.8878 3.72274 0.479278 0.556275 1.18257 10.1662 4.56403 1.10126 5.0569 0.577821 6.15148 1.81447 4.28776 5.54367 0.941314 1.45278 0.534303 2.89652 5.84289 1.88441 4.46626 6.97278 3.32284 7.0981 4.22982 3.37568 2.10644 2.36544 6.65841 4.16641 2.382 1.37389 1.21478 2.54379 3.16214 0.610455 1.30771 4.13368 3.81253 0.607458 3.28871 3.37946 3.50142 0.539212 7.6352 0.849586 2.26625 3.5207 4.38577 6.95673 4.94281 7.70324 0.747197 0.759308 5.77092 1.22647 0.983278 4.8018 2.28908 2.57904 0.454105 7.17941 4.71493 0.594436 0.45947 1.14944 1.32485 6.00309 4.2566 0.262457 7.96037 2.20212 0.818679 3.53846 3.0392 0.497221 2.74881 7.73111 0.987517 1.91206 5.13461 0.599809 2.28507 0.487534 3.3097 0.395422 1.65417 1.556 2.29478 6.13447 0.378627 0.418071 7.37318 0.917755 2.26894 0.371843 9.31409 6.81697 6.86142 1.13757 3.21149 0.961763 1.91469 2.01364 1.00218 4.67218 4.23591 6.91521 0.725319 4.98806 5.25831 3.70267 1.37724 4.34276 2.38432 6.7898 2.65909 4.09651 4.54971 0.704597 0.817604 2.68505 4.89934 2.35998 1.05032 1.72853 0.668848 3.75122 1.75404 6.95041 4.153 1.86318 2.66303 2.46229 3.29654 0.838999 6.15246 4.80231 2.85846 1.23408 8.13718 1.56944 4.75604 5.08132 1.93639 6.11835 5.82718 1.02483 1.12801 2.4236 0.857583 7.17789 1.11654 3.72793 1.06703 4.85945 4.90931 3.6028 6.0888 5.84289 1.37379 2.1508 0.584608 3.84212 1.92718 1.90957 3.2725 0.443111 6.03289 0.535417 8.80492 1.4106 0.584608 0.06623 6.78909 0.984523 1.65001 0.738548 7.7802 0.882429 1.41564 0.873377 4.38934 2.18934 1.43365 7.68133 1.874 1.86998 2.56765 1.36686 5.17733 3.2725 5.83641 2.20765 3.23845 5.64025 3.84212 1.4106 2.80446 3.30162 5.21275 0.06623 6.03289 3.9801 1.45296 0.449182 4.16641 1.74887 3.64884 1.64424 3.0392 3.56869 6.24204 6.4037 0.915596 4.27297 6.25148 0.0186917 8.23143 3.78706 2.48175 2.46172 6.74883 0.165746 4.0288 0.783622 5.05737 2.67208 0.67918 6.20569 3.48218 2.49694 4.29397 0.966006 6.51971 1.37379 6.97278 0.498304 5.08132 3.89918 1.68677 0.820491 2.49423 3.27924 2.22295 1.1628 1.85747 6.99391 6.02814 4.09861 0.660561 5.90672 1.44721 5.514 5.78786 3.37946 2.33761 0.587855 4.2566 4.76868 1.33581 1.95564 0.527285 4.74998 3.17265 6.06083 1.40111 3.543 5.05737 2.17554 1.27228 3.15312 0.484691 4.0557 2.48057 0.887099 5.67767 4.91896 2.20212 2.66491 1.59404 7.08465 0.168195 7.27584 3.56096 5.24788 0.962772 0.736055 1.23225 3.45504 3.30161 3.13583 1.09038 0.819991 9.12643 2.88932 0.993787 3.80921 3.30162 3.34691 5.24846 6.16781 2.93708 9.12643 1.13587 5.91729 2.37998 1.60795 1.85678 6.88873 0.818677 0.699826 9.36418 0.817604 3.92233 4.74635 0.582892 0.225724 5.91312 6.59632 4.24341 6.53901 0.547551 1.7007 0.189116 7.04979 2.7426 2.3264 6.20569 2.94557 1.21086 0.779601 6.42399 0.0186917 7.71207 5.42367 2.85046 3.78376 0.752521 1.78159 5.67767 5.22689 2.66303 4.35162 5.71037 5.7971 1.11556 1.70725 7.67341 0.534517 0.685069 5.78028 4.68607 1.0302 8.06181 1.13757 6.15802 0.279512 0.2125 2.3059 0.490265 3.46602 5.00533 1.46977 6.74301 3.42563 1.08301 6.4037 1.14172 0.470981 9.42302 3.29654 0.25423 6.2864 2.77083 0.484323 4.76099 2.95864 3.96259 6.17707 2.2382 4.62744 3.21612 1.00326 4.58857 0.562107 1.52963 1.00805 1.77701 2.95864 0.637291 3.20225 7.97489 3.54659 2.60246 3.47642 6.86294 2.95679 5.82718 2.22696 1.62594 1.78812 8.71748 0.394085 6.86294 0.386416 6.38145 2.13733 2.36845 1.28713 5.20137 5.96122 1.74609 6.23841 4.39973 1.44153 1.347 3.07027 2.87726 6.15246 0.888505 9.55284 0.490265 9.28388 3.37964 5.08265 1.57679 1.62917 3.25536 5.17629 2.26894 2.34162 2.69203 1.36668 0.67918 5.465 5.04989 2.67476 2.94557 0.189116 9.01989 5.25458 5.34413 3.15816 6.65368 2.16312 1.84102 4.50174 4.38934 4.43393 1.72853 0.454447 7.80411 4.25535 1.94023 4.93751 2.24297 1.66152 5.42535 0.206499 9.31409 2.78579 4.56403 3.4626 0.849586 4.58252 3.81253 6.92708 0.575258 1.71158 4.51957 5.56523 3.36289 4.34999 3.21149 5.00533 1.42228 3.80921 0.416093 1.76143 1.01641 0.902782 1.01767 2.45004 6.26133 2.26817 0.88848 4.10614 0.540477 1.65447 6.28079 0.306382 0.779614 6.70394 4.8451 2.70207 8.83245 2.69203 1.10426 7.74566 1.46107 1.556 8.27894 0.595598 9.04354 0.596148 3.29287 0.306382 0.422249 1.93454 1.59404 0.71542 3.68258 5.10115 5.53123 4.6378 3.12233 2.12676 0.386416 3.47642 0.790114 1.22139 9.04354 1.49136 6.81558 1.59491 1.40638 7.39004 1.40404 0.942135 1.96741 1.77833 5.44698 1.10446 1.95738 3.91816 3.77651 0.664348 1.37724 8.51349 7.38753 6.63485 3.37568 0.731026 0.562107 4.55574 0.952253 4.10214 0.464874 1.01389 7.13039 1.91321 1.85463 1.33471 2.89523 1.09088 0.476799 1.93879 5.77397 0.873377 6.66465 1.14524 0.725319 3.53439 0.668848 4.43393 2.76817 8.82957 8.32162 1.40404 0.16375 1.96741 11.2296 1.43145 3.69691 4.35492 0.998788 1.29292 3.19287 4.59598 4.66919 2.294 2.43338 2.76092 6.49117 1.15299 0.66861 2.08688 3.32284 0.459871 2.59275 4.09689 0.760465 2.8618 3.68397 5.20563 0.964767 10.1178 1.41909 7.54919 3.58878 0.417453 1.27591 5.03702 2.06958 2.83279 4.64181 4.98806 1.14524 3.72274 6.74436 1.59491 0.489565 6.45371 1.35231 2.48175 2.68096 1.28713 0.332647 1.28532 1.1628 7.71907 6.52925 1.51377 0.416093 8.30345 0.534303 2.48352 2.9395 3.77651 0.899687 2.27667 1.76961 2.68505 5.40493 1.60852 5.04989 1.18514 3.79174 6.26133 1.63196 2.75399 2.63267 4.09746 0.453873 4.73115 0.479278 6.45371 4.9317 7.20366 0.701914 7.37718 0.196126 1.75404 5.22689 0.887099 6.18594 2.41602 5.61405 1.88 0.25423 2.46229 6.23731 1.77516 6.29037 2.46172 1.35231 0.151393 4.97602 2.92228 0.942135 8.32162 0.925522 1.50689 1.36109 1.22055 11.2296 3.5931 6.34864 2.29148 4.27297 0.86433 0.296459 2.0195 5.29558 1.04232 2.44126 9.1857 1.72764 1.23408 0.498304 4.46626 0.643057 4.08273 7.72267 1.01767 5.65365 1.00242 3.26272 4.38899 2.91872 0.961763 5.97425 0.300459 2.70207 4.47765 7.37718 1.16052 6.20708 4.74998 12.461 5.73873 1.07713 2.33761 3.28871 4.7869 0.692528 6.06595 6.74883 6.29037 2.08688 7.43652 3.66212 0.619605 7.0981 0.395457 6.51971 1.68687 5.12625 0.751549 1.49136 0.595598 1.82755 0.736078 6.9675 2.315 1.8292 0.818679 4.91896 3.05541 2.31029 3.86861 1.03093 5.96122 4.69356 3.21091 1.4389 4.29245 1.10446 2.53765 4.14481 0.52475 1.89126 5.72559 4.39183 5.60663 4.85945 0.619841 0.790114 2.60246 5.20833 4.34888 1.76961 4.76437 6.1976 4.89934 4.58857 0.695822 5.42367 1.49343 1.31477 1.74283 7.38753 1.51229 2.22419 3.68258 3.29054 7.27584 1.86998 1.65793 0.906193 3.20377 2.82395 5.3746 0.451369 4.66919 3.02993 3.8251 1.78639 7.68133 4.01699 0.513499 1.77381 3.33571 7.67341 8.97826 5.24846 1.7706 0.842958 5.03745 1.94023 3.24139 0.601971 2.50101 0.651761 4.67218 2.89219 8.61804 0.464874 7.71725 2.0195 0.237219 1.84646 0.487232 8.11054 0.165746 6.06595 4.24043 0.7892 1.49343 7.71207 3.80513 7.56363 3.02507 4.75686 0.882429 0.246489 6.58682 2.22705 0.67541 0.851098 2.06958 5.14218 4.63648 6.46869 1.24248 1.91088 2.21562 1.5582 1.95793 6.78909 1.74887 6.65841 1.41564 5.14218 5.03702 6.66465 2.85084 1.91321 4.03183 3.43822 1.03822 5.72562 4.93883 0.601971 2.08431 4.69315 5.53208 3.69691 1.36485 3.86861 1.04904 6.55544 7.08507 3.2271 3.30161 6.47194 6.10556 0.704907 3.52437 9.7197 2.23574 2.78133 4.38199 2.26639 5.6394 3.93112 4.80231 2.87726 1.08479 4.23142 0.417292 3.20377 4.24043 0.692528 1.77516 4.1117 6.75746 2.86989 6.54205 0.715647 3.33087 1.63196 2.7342 0.618447 1.77381 1.00118 2.8618 1.75287 3.50142 5.78786 1.94719 4.38577 0.633484 3.52038 8.83996 1.82805 1.78812 5.86739 1.53775 4.55749 1.41909 5.91975 0.417453 2.37795 3.91783 4.79931 3.8993 2.59076 4.18646 5.9827 3.48608 4.54619 6.13513 2.75828 0.564095 3.41408 4.76437 2.27667 4.53839 6.4066 0.994485 0.691761 3.15816 3.24595 1.741 0.643057 1.88441 6.0888 2.91226 8.74686 2.03837 4.42684 4.24341 0.481529 4.85668 4.8451 2.63975 0.606254 2.76092 3.35885 2.23574 6.83316 3.21612 5.56133 0.747197 0.901349 4.14481 1.06276 0.65237 9.29196 1.09088 1.57294 0.745025 7.16022 0.369552 0.575258 2.35114 3.23845 0.616171 3.94123 0.437925 2.71548 6.39614 2.93393 4.76868 6.00309 5.06923 5.79483 1.45296 2.08431 8.61804 0.902447 0.431116 5.73873 2.93133 1.12785 0.779799 3.17265 0.783622 0.859062 0.30726 2.69298 2.20132 5.89377 0.387454 4.6026 1.95738 0.324968 1.35973 3.55768 4.54619 1.68687 0.966006 5.57884 3.76387 1.51229 0.168195 2.0129 2.91089 3.46602 1.62917 4.29161 1.81447 6.0037 1.42228 5.03745 4.87513 1.52963 1.50925 2.12334 4.93751 0.691761 3.0784 6.10556 0.673616 2.22154 6.65368 6.28786 5.68734 5.18446 0.998788 2.03837 2.01425 10.4932 2.49961 2.22705 0.926428 4.5664 2.69559 5.89377 3.22566 3.82585 3.19287 0.65237 6.92708 4.13368 2.062 1.4782 7.08507 1.75995 0.923697 2.67208 3.543 0.618629 2.13733 1.01819 1.18514 5.465 1.57294 2.89523 6.01584 1.4389 8.44688 0.817958 12.461 0.527285 1.5939 6.28383 5.27694 0.395422 3.02507 0.337367 3.42611 2.01364 3.4439 0.779601 5.91446 0.659303 4.23288 6.4066 1.01367 6.31113 0.954294 0.437925 7.4914 4.19254 0.778839 5.04028 0.816711 2.26639 2.67775 4.06425 1.51126 6.49009 0.673864 8.06181 4.30343 0.692411 3.22566 2.20132 5.63205 1.13339 1.09258 1.19865 2.91226 6.76128 1.70877 4.5335 4.08282 0.737887 2.20119 0.398556 1.43365 2.30498 1.77833 1.29292 5.18446 1.44305 3.5557 6.27341 2.63975 6.70394 6.63087 5.89793 2.1049 5.0142 2.81739 2.24297 2.12334 1.66602 3.26272 8.92299 2.35998 6.1976 3.41408 0.770037 2.11994 0.634518 6.2864 1.88 1.05988 6.34864 0.745025 8.44688 3.21091 4.22646 6.13254 1.01389 8.11054 3.84146 4.08273 1.741 1.17948 2.55686 1.7706 3.34691 2.80446 8.80492 1.12801 9.53838 2.01637 2.15149 0.756657 0.379126 6.72953 1.09956 0.2125 9.63106 0.831073 1.5582 2.36544 8.18942 8.22901 6.13447 4.21283 0.97655 2.56765 5.3746 0.925905 3.96167 3.72378 1.15237 10.7864 4.09689 5.17369 0.306511 2.74881 0.490061 1.01367 4.53839 0.899687 3.91816 4.6026 3.75037 2.20119 7.36767 2.35262 0.95318 5.25458 0.933781 0.753745 6.24204 3.69154 0.859062 4.0288 2.3264 1.19786 1.30119 3.89918 4.75604 0.980247 0.337367 7.56363 0.585734 5.2827 2.98889 2.2382 0.731026 4.22982 0.619605 1.58869 1.14172 6.25148 2.29148 1.05988 5.61405 0.636062 1.45711 2.69559 2.43338 7.12142 6.06083 0.779799 0.86932 6.76128 0.481529 2.7426 1.72869 0.628814 5.0569 1.49701 4.74635 4.68004 1.38931 0.470981 2.71087 4.07956 6.16781 3.24139 4.25535 2.50142 1.32812 1.50925 7.97489 2.37719 0.379126 7.78215 1.66602 6.28383 4.32113 3.48218 0.395457 5.72793 2.97947 0.803197 5.15641 2.77292 0.925522 8.82957 2.18934 7.80411 2.71897 2.92521 2.2966 2.30498 5.67209 0.704907 3.0784 0.994485 3.6028 4.65083 5.22034 5.77092 2.38997 5.2827 2.59203 1.98624 6.9646 1.18234 7.43652 0.66861 0.453873 5.61396 1.91469 2.91872 1.63856 0.406184 4.33586 10.0718 0.748896 0.539212 1.75287 0.760465 10.7864 3.52904 4.65083 2.1508 1.68677 1.30119 3.80513 0.638777 0.540477 1.82274 0.497022 6.95827 3.24594 0.422249 6.28079 1.16678 0.962772 3.47342 4.69315 1.12785 2.94579 10.9633 4.29161 1.57679 2.62389 1.14944 2.85395 4.28776 1.78639 5.97178 0.636062 2.41602 3.89215 1.65793 1.874 0.737887 1.96764 1.79511 3.52038 3.07948 7.36767 2.8878 4.21283 2.29478 1.46107 1.22139 6.74436 4.03183 5.77397 5.67709 1.02298 1.36556 5.13461 5.64066 0.418071 1.65062 8.24337 1.62594 1.30825 1.34663 3.69434 2.86694 5.86739 3.00081 6.83498 0.868155 1.22683 6.18594 2.48057 3.33087 7.13791 5.35555 2.75399 2.48352 1.45278 1.776 1.60795 3.37255 0.783269 6.61186 4.85668 5.6394 0.816711 3.32855 1.16678 1.65447 1.36526 6.13741 5.90188 0.987517 2.64132 1.24248 6.88873 2.78503 5.10117 0.983278 3.85245 1.51126 2.21566 2.71087 2.77083 0.634518 6.72679 1.1682 0.324968 8.51349 3.70267 0.224965 5.64647 3.20562 4.28243 1.2619 0.547551 4.74647 0.926428 6.58682 0.983762 5.9827 2.12986 5.63205 0.86932 2.64913 0.606254 5.89793 0.764221 3.78901 6.49117 5.27694 5.72793 1.82755 8.27894 1.65417 0.39301 3.5557 3.86514 1.12528 3.78376 6.59958 2.9395 6.61186 1.40283 1.96764 4.08282 1.24815 4.72982 5.10115 2.22419 3.76387 0.94063 0.778839 0.387698 2.01637 2.69743 5.80774 0.485503 6.89592 3.06908 0.484323 2.40613 8.43238 6.45426 1.93639 2.98968 6.52204 1.3702 1.95578 5.60663 0.749069 0.954294 1.45553 0.993787 6.84999 1.58869 3.66212 1.18234 2.7041 2.88739 0.7892 6.75746 1.23105 0.858775 2.67775 4.38199 0.859508 1.31477 1.91206 5.90188 1.88664 7.37318 5.64066 0.587779 4.8018 5.10117 4.03811 2.28507 8.22901 4.42684 4.5664 4.74647 6.53901 3.37964 2.33933 2.382 0.449182 5.79483 3.31473 3.15366 2.64913 1.49701 1.10126 2.78579 0.371843 5.17629 0.86433 0.915596 1.08301 2.88795 0.736078 1.76364 3.04564 6.70672 3.8251 1.97001 2.97657 1.46977 1.45711 5.97178 1.23832 2.64926 4.1549 1.54681 2.45401 6.54205 3.61631 2.64926 2.00767 1.89126 1.95578 4.99204 0.196126 4.47765 7.74566 0.664989 6.95041 0.306511 7.46717 1.91088 2.64132 7.73111 5.67709 1.93879 0.350799 5.90672 4.96506 1.7007 1.2619 6.61208 0.738548 0.398556 0.933781 9.01989 0.757682 0.568567 4.15271 6.15802 6.86142 2.98889 2.38997 0.759308 5.561