<VTKFile type="UnstructuredGrid" version="0.1">
<UnstructuredGrid>
<Piece  NumberOfPoints="    2491" NumberOfCells="     417">
<Points>
<DataArray type="Float64" NumberOfComponents="3" format="ascii">
25.4717 -24.0128 0.0
24.8158 -24.4449 0.0
29.1471 -27.8812 0.0
30.2092 -26.5765 0.0
30.242 -22.2001 0.0
34.8333 -37.6178 0.0
34.7455 -37.0366 0.0
29.0731 -36.5959 0.0
28.3559 -37.1814 0.0
25.7539 -41.9587 0.0
25.4613 -42.6037 0.0
-21.7089 50.504 0.0
-24.4719 50.8188 0.0
-25.9838 50.6591 0.0
-27.4534 49.5431 0.0
-24.9323 44.8895 0.0
-22.2284 45.1961 0.0
0.151297 12.7241 0.0
-1.36011 14.1745 0.0
-8.83965 8.58337 0.0
-8.33718 6.8382 0.0
-8.13742 6.56653 0.0
-0.675456 12.1086 0.0
43.5862 -6.80124 0.0
44.6409 -6.02196 0.0
42.6629 -1.15468 0.0
40.2583 -3.75353 0.0
38.8789 -5.38136 0.0
40.0027 -7.6682 0.0
47.9023 -0.355616 0.0
46.5969 -5.63269 0.0
50.6712 -9.042 0.0
53.1417 -5.44988 0.0
51.2461 -3.49912 0.0
51.0637 33.2724 0.0
51.1928 33.6667 0.0
47.2952 37.8499 0.0
45.9753 37.8295 0.0
45.1527 34.8858 0.0
45.9618 33.5405 0.0
49.3755 31.947 0.0
10.7241 -15.5583 0.0
14.4655 -10.1398 0.0
13.3808 -8.28045 0.0
6.99339 -10.5666 0.0
9.45183 -14.221 0.0
-24.7952 -50.9561 0.0
-22.8358 -53.8107 0.0
-21.7142 -54.8642 0.0
-18.2531 -50.6566 0.0
-21.7262 -47.3668 0.0
-44.1021 36.3908 0.0
-44.0905 35.9003 0.0
-43.1291 35.2095 0.0
-38.6376 32.8458 0.0
-37.9235 33.2313 0.0
-34.743 37.217 0.0
-45.6535 -10.201 0.0
-43.1935 -10.6429 0.0
-37.5717 -5.81974 0.0
-37.7214 -5.61699 0.0
-46.2677 -7.75366 0.0
-29.5427 -12.3998 0.0
-35.3638 -10.3664 0.0
-36.2423 -11.4729 0.0
-35.8907 -16.1104 0.0
-34.9407 -16.8224 0.0
-32.7977 -17.6257 0.0
-41.686 -14.4437 0.0
-42.3269 -11.6058 0.0
-43.3531 -11.15 0.0
-45.8131 -10.7081 0.0
-46.3116 -11.9039 0.0
-45.9248 -15.5778 0.0
-45.5863 -16.1407 0.0
-5.97206 -5.03677 0.0
-6.40552 -4.86989 0.0
-8.08952 -5.25458 0.0
-9.28374 -10.0037 0.0
-5.60624 -11.5223 0.0
-4.45153 -10.663 0.0
55.9543 7.92874 0.0
55.5737 4.16526 0.0
61.1905 4.53432 0.0
61.6847 8.67043 0.0
61.0954 9.24155 0.0
57.1944 8.96784 0.0
-52.1999 -20.6751 0.0
-50.5277 -23.4199 0.0
-49.2259 -23.4314 0.0
-44.9621 -19.1719 0.0
-46.0101 -16.8234 0.0
-46.3486 -16.2606 0.0
-13.8798 35.1055 0.0
-13.538 37.6494 0.0
-15.1996 39.1691 0.0
-16.1163 39.7661 0.0
-17.8087 39.8145 0.0
-18.371 39.7439 0.0
-20.1337 38.1978 0.0
-21.2524 34.5288 0.0
50.4651 5.42592 0.0
50.3884 12.4447 0.0
47.691 12.0283 0.0
46.6879 9.26082 0.0
25.9314 -10.0511 0.0
29.9554 -9.46879 0.0
31.8641 -5.71693 0.0
29.4505 -2.97745 0.0
28.9555 -2.88373 0.0
24.3756 32.7402 0.0
27.6104 34.5503 0.0
26.2354 37.8335 0.0
23.9538 38.5308 0.0
22.8337 38.4366 0.0
19.284 38.1405 0.0
51.6549 -3.1558 0.0
53.5505 -5.10656 0.0
54.3911 -4.76434 0.0
54.6214 -4.47213 0.0
55.6283 -1.26809 0.0
54.4201 1.98118 0.0
52.9975 2.13728 0.0
-14.6285 11.2171 0.0
-13.0859 11.2922 0.0
-9.56671 17.3412 0.0
-9.76525 17.7441 0.0
-11.2416 18.1053 0.0
-13.4044 18.1398 0.0
-16.3008 13.8029 0.0
-16.324 12.2836 0.0
20.3422 23.2372 0.0
21.5568 21.9231 0.0
27.1002 25.903 0.0
26.8711 26.7148 0.0
23.2722 28.2735 0.0
25.6321 15.1532 0.0
28.3468 14.028 0.0
30.9976 15.8024 0.0
31.4267 19.6175 0.0
31.2473 20.4504 0.0
29.7192 21.2747 0.0
29.0539 21.0049 0.0
-38.835 32.4041 0.0
-43.3266 34.7678 0.0
-42.4082 27.8704 0.0
-40.8494 26.9221 0.0
-31.5052 14.6577 0.0
-33.6997 14.0629 0.0
-34.4139 11.3151 0.0
-32.8016 9.39635 0.0
-27.0908 9.52972 0.0
-28.8804 21.7422 0.0
-29.8681 23.2509 0.0
-35.1392 19.8705 0.0
-35.7207 19.4583 0.0
-35.5685 18.0719 0.0
-33.7936 14.7939 0.0
-31.5991 15.3888 0.0
-31.3506 15.5468 0.0
-51.7795 14.4034 0.0
-52.1731 14.0995 0.0
-51.1645 8.70727 0.0
-50.2968 7.31448 0.0
-46.5719 9.15487 0.0
45.978 -13.2789 0.0
45.0508 -12.9352 0.0
39.3793 -13.9595 0.0
39.1486 -14.4308 0.0
38.7662 -17.562 0.0
40.8351 -18.4347 0.0
19.6124 -37.3029 0.0
20.6165 -37.0903 0.0
27.1041 -32.2162 0.0
27.1016 -31.7449 0.0
26.7884 -31.2415 0.0
24.7645 -31.0097 0.0
19.0925 -34.1898 0.0
19.1837 -36.5185 0.0
-34.1877 0.247597 0.0
-34.9121 1.51614 0.0
-40.3818 3.15967 0.0
-40.2687 0.239066 0.0
-37.4538 -1.53294 0.0
7.14621 29.2737 0.0
3.26759 30.9804 0.0
2.05641 30.3646 0.0
-2.6699 26.143 0.0
-1.03635 24.8128 0.0
0.0939923 25.1693 0.0
8.31691 18.6705 0.0
7.02471 18.9134 0.0
2.00552 12.9877 0.0
2.27936 12.7644 0.0
6.05688 12.3648 0.0
6.29114 12.6495 0.0
8.30099 15.2075 0.0
8.91079 17.3812 0.0
-51.5293 8.30028 0.0
-55.1251 8.84823 0.0
-56.1398 4.6616 0.0
-55.4281 4.17346 0.0
-52.7173 3.94362 0.0
-52.2937 4.28374 0.0
-50.7489 6.4882 0.0
-50.6616 6.90749 0.0
-21.8995 -32.3382 0.0
-20.6039 -30.8337 0.0
-22.1533 -23.2829 0.0
-22.6438 -22.8267 0.0
-23.4786 -22.7622 0.0
-25.9895 -25.5739 0.0
-26.75 -26.9898 0.0
27.277 41.2578 0.0
27.08 41.7533 0.0
19.3121 42.9858 0.0
23.9771 39.0032 0.0
26.2587 38.3058 0.0
27.244 40.1901 0.0
-7.68439 30.9344 0.0
-7.27495 27.5247 0.0
-5.3507 26.3583 0.0
-4.64116 26.2658 0.0
-3.26046 26.2316 0.0
1.46586 30.4532 0.0
-3.24464 -49.2294 0.0
-1.44684 -48.1567 0.0
-4.88757 -40.736 0.0
-5.04506 -40.7795 0.0
-5.13644 -45.2948 0.0
-4.98925 -48.6803 0.0
-4.73078 -48.8871 0.0
-42.4078 -20.6379 0.0
-44.6838 -19.4388 0.0
-48.9476 -23.6983 0.0
-47.0608 -25.7842 0.0
-46.1877 -26.3432 0.0
58.068 17.6868 0.0
57.5698 17.854 0.0
53.3964 11.5308 0.0
55.6905 8.53552 0.0
56.9306 9.57463 0.0
34.5847 23.0628 0.0
37.6639 24.5197 0.0
35.0247 28.7276 0.0
31.0656 27.4505 0.0
-38.9821 13.9658 0.0
-36.2321 17.8253 0.0
-36.3843 19.2118 0.0
-37.1583 19.797 0.0
-42.7743 14.3371 0.0
18.2286 -34.5128 0.0
18.1155 -34.4157 0.0
8.94173 -38.2499 0.0
8.16842 -39.5602 0.0
11.7996 -38.7899 0.0
18.3199 -36.8415 0.0
-36.2407 10.0372 0.0
-35.5718 10.8163 0.0
-40.0779 11.5917 0.0
-42.5587 8.31311 0.0
-40.6498 6.70561 0.0
-38.1451 7.77804 0.0
20.0251 -45.5051 0.0
14.5162 -48.2007 0.0
13.8251 -48.8658 0.0
16.2937 -53.9464 0.0
17.9382 -53.7427 0.0
-16.6801 -50.5526 0.0
-13.9822 -52.7276 0.0
-10.0196 -49.2878 0.0
-9.68671 -48.7374 0.0
-10.852 -47.2615 0.0
-12.9153 -46.3985 0.0
-14.5128 -45.7449 0.0
-37.6855 40.6187 0.0
-33.6807 39.7766 0.0
-33.2041 44.1222 0.0
-34.2137 46.7456 0.0
-36.6671 46.1379 0.0
22.4724 30.5155 0.0
17.3339 33.3458 0.0
16.7449 28.7248 0.0
17.498 28.5811 0.0
22.5892 29.1855 0.0
-10.2485 46.9837 0.0
-8.34254 46.8431 0.0
-4.11323 49.7555 0.0
-4.17368 50.4709 0.0
-10.6683 51.673 0.0
16.0887 -16.4711 0.0
17.0545 -11.6288 0.0
14.823 -10.3831 0.0
11.0816 -15.8016 0.0
11.121 -16.1801 0.0
21.6588 9.94235 0.0
23.644 6.02518 0.0
28.2088 9.85201 0.0
28.1992 10.0455 0.0
27.9043 11.7396 0.0
-37.7828 -3.9546 0.0
-37.8119 -1.83512 0.0
-40.6269 -0.0631119 0.0
-43.9407 -1.01052 0.0
-45.5467 -3.33088 0.0
5.62874 -40.8601 0.0
6.0624 -40.3541 0.0
4.4131 -35.2188 0.0
-0.218285 -36.3159 0.0
-1.11427 -37.4957 0.0
-1.12922 -37.6804 0.0
2.6987 -39.7205 0.0
-13.0485 35.2258 0.0
-12.5938 34.2396 0.0
-4.1534 39.5886 0.0
-3.78926 40.2057 0.0
-6.77617 41.4583 0.0
-12.7067 37.7697 0.0
-19.3466 16.9404 0.0
-20.2705 19.8887 0.0
-20.9562 20.875 0.0
-22.1297 20.88 0.0
-23.9212 19.4307 0.0
-25.0899 15.7548 0.0
-23.9516 13.6727 0.0
-29.5392 -41.951 0.0
-27.9254 -41.9226 0.0
-28.482 -35.892 0.0
-32.143 -36.244 0.0
-32.251 -38.0829 0.0
16.0463 15.4488 0.0
15.4098 15.5455 0.0
12.7506 12.1987 0.0
15.9015 9.49436 0.0
18.5977 12.1921 0.0
16.6686 14.9554 0.0
0.882154 -52.9176 0.0
1.48588 -56.4311 0.0
8.10495 -52.4089 0.0
8.4668 -51.7333 0.0
8.45552 -50.4569 0.0
7.19865 -50.5437 0.0
11.8334 -3.26872 0.0
6.85157 -1.72875 0.0
5.42497 -5.75205 0.0
5.68079 -8.08795 0.0
16.0739 -2.27349 0.0
20.4702 -4.82287 0.0
20.8142 1.04051 0.0
19.8704 1.31092 0.0
17.8026 1.16415 0.0
22.3087 -11.0096 0.0
24.9212 -10.4977 0.0
25.5179 -10.0462 0.0
28.542 -2.87885 0.0
28.2273 -2.62004 0.0
25.6233 -2.7509 0.0
22.5431 -6.5562 0.0
22.2968 -7.31216 0.0
21.7691 -10.5015 0.0
26.8453 42.086 0.0
26.714 42.8412 0.0
24.3689 45.1925 0.0
17.9148 46.0132 0.0
16.8304 44.9839 0.0
19.0774 43.3186 0.0
14.5646 -47.5916 0.0
20.0734 -44.8959 0.0
21.1341 -43.9616 0.0
18.7873 -39.8448 0.0
15.064 -42.2193 0.0
-1.44562 14.4192 0.0
-2.13117 15.4586 0.0
-3.30704 15.9409 0.0
-5.39727 15.3639 0.0
-9.34847 9.82682 0.0
-8.92516 8.82801 0.0
41.7885 45.4658 0.0
39.2696 41.4192 0.0
45.104 39.5677 0.0
44.2227 43.6031 0.0
43.0125 44.8454 0.0
-25.5898 3.36862 0.0
-26.091 3.15908 0.0
-26.8953 -1.82547 0.0
-22.1303 -2.44011 0.0
-21.8536 -1.79195 0.0
-22.5269 -0.00282429 0.0
-3.32017 3.03504 0.0
-4.81375 2.82483 0.0
-5.6109 -1.57176 0.0
-6.04719 -4.13931 0.0
-5.61374 -4.30618 0.0
-2.0459 -4.56243 0.0
-0.750088 -2.51819 0.0
-0.2659 -0.601528 0.0
-2.1874 2.40782 0.0
19.0409 11.5383 0.0
18.822 11.5816 0.0
16.1258 8.88384 0.0
15.958 8.46533 0.0
15.6718 7.76619 0.0
17.3036 2.63514 0.0
17.7128 1.94834 0.0
19.7806 2.0951 0.0
-15.5443 40.4206 0.0
-14.6276 39.8235 0.0
-7.89699 44.6755 0.0
-8.69805 46.2617 0.0
-10.604 46.4024 0.0
-11.194 46.2957 0.0
-16.4687 -35.292 0.0
-15.8821 -34.7447 0.0
-12.8959 -30.7243 0.0
-14.9345 -29.185 0.0
-18.6745 -31.004 0.0
32.4623 50.9135 0.0
28.0494 48.2109 0.0
32.3149 44.9397 0.0
32.4844 44.9958 0.0
33.7372 49.4005 0.0
-13.468 32.1589 0.0
-17.1078 29.4537 0.0
-16.7122 26.2321 0.0
-13.4499 25.17 0.0
-12.4631 25.9336 0.0
29.9813 -2.50179 0.0
32.3949 -5.24127 0.0
36.4686 -4.6632 0.0
36.9197 -4.47906 0.0
37.2772 2.45616 0.0
33.8159 0.177637 0.0
8.95094 -52.0318 0.0
8.58909 -52.7074 0.0
5.93064 -58.8427 0.0
6.47637 -58.9487 0.0
12.6537 -57.2627 0.0
12.8766 -56.9128 0.0
-7.94273 46.5743 0.0
-7.14168 44.988 0.0
-6.42926 44.175 0.0
0.58596 46.1927 0.0
0.585752 46.5728 0.0
-3.71342 49.4866 0.0
-24.1208 29.4127 0.0
-23.9944 28.6061 0.0
-22.0602 21.6227 0.0
-20.8867 21.6177 0.0
-18.9264 24.3633 0.0
-35.5329 -38.7624 0.0
-32.7581 -37.8043 0.0
-32.6501 -35.9654 0.0
-33.5997 -34.7271 0.0
-34.9339 -33.1537 0.0
-37.5002 -33.5655 0.0
1.59896 45.9324 0.0
9.09621 42.5233 0.0
7.0927 46.926 0.0
4.06062 47.9823 0.0
1.52351 46.4693 0.0
1.52372 46.0892 0.0
-0.0611672 55.4304 0.0
3.07997 58.9497 0.0
3.19613 60.0534 0.0
-3.45956 61.5018 0.0
-3.96118 61.3227 0.0
-2.77095 56.6483 0.0
-0.977904 55.2506 0.0
50.7083 -13.764 0.0
53.4802 -19.0094 0.0
54.2945 -18.9721 0.0
[...]
<CellData Scalars="cell variable 4" Vectors="cell vector">
<DataArray type="Float64" NumberOfComponents="3" Name="cell vector" format="ascii">
0 0 0
0 0 0
0 0 0
0 0 0
0 0 0
0 0 0
0 0 0
0 0 0
0 0 0
0 0 0
0 0 0
0 0 0
0 0 0
0 0 0
0 0 0
0 0 0
0 0 0
0 0 0
0 0 0
0 0 0
0 0 0
0 0 0
0 0 0
0 0 0
0 0 0
0 0 0
0 0 0
0 0 0
0 0 0
0 0 0
0 0 0
0 0 0
0 0 0
0 0 0
0 0 0
0 0 0
0 0 0
0 0 0
0 0 0
0 0 0
0 0 0
0 0 0
0 0 0
0 0 0
0 0 0
0 0 0
0 0 0
0 0 0
0 0 0
0 0 0
0 0 0
0 0 0
0 0 0
0 0 0
0 0 0
0 0 0
0 0 0
0 0 0
0 0 0
0 0 0
0 0 0
0 0 0
0 0 0
0 0 0
0 0 0
0 0 0
0 0 0
0 0 0
0 0 0
0 0 0
0 0 0
0 0 0
0 0 0
0 0 0
0 0 0
0 0 0
0 0 0
0 0 0
0 0 0
0 0 0
0 0 0
0 0 0
0 0 0
0 0 0
0 0 0
0 0 0
0 0 0
0 0 0
0 0 0
0 0 0
0 0 0
0 0 0
0 0 0
0 0 0
0 0 0
0 0 0
0 0 0
0 0 0
0 0 0
0 0 0
0 0 0
0 0 0
0 0 0
0 0 0
0 0 0
0 0 0
0 0 0
0 0 0
0 0 0
0 0 0
0 0 0
0 0 0
0 0 0
0 0 0
0 0 0
0 0 0
0 0 0
0 0 0
0 0 0
0 0 0
0 0 0
0 0 0
0 0 0
0 0 0
0 0 0
0 0 0
0 0 0
0 0 0
0 0 0
0 0 0
0 0 0
0 0 0
0 0 0
0 0 0
0 0 0
0 0 0
0 0 0
0 0 0
0 0 0
0 0 0
0 0 0
0 0 0
0 0 0
0 0 0
0 0 0
0 0 0
0 0 0
0 0 0
0 0 0
0 0 0
0 0 0
0 0 0
0 0 0
0 0 0
0 0 0
0 0 0
0 0 0
0 0 0
0 0 0
0 0 0
0 0 0
0 0 0
0 0 0
0 0 0
0 0 0
0 0 0
0 0 0
0 0 0
0 0 0
0 0 0
0 0 0
0 0 0
0 0 0
0 0 0
0 0 0
0 0 0
0 0 0
0 0 0
0 0 0
0 0 0
0 0 0
0 0 0
0 0 0
0 0 0
0 0 0
0 0 0
0 0 0
0 0 0
0 0 0
0 0 0
0 0 0
0 0 0
0 0 0
0 0 0
0 0 0
0 0 0
0 0 0
0 0 0
0 0 0
0 0 0
0 0 0
0 0 0
0 0 0
0 0 0
0 0 0
0 0 0
0 0 0
0 0 0
0 0 0
0 0 0
0 0 0
0 0 0
0 0 0
0 0 0
0 0 0
0 0 0
0 0 0
0 0 0
0 0 0
0 0 0
0 0 0
0 0 0
0 0 0
0 0 0
0 0 0
0 0 0
0 0 0
0 0 0
0 0 0
0 0 0
0 0 0
0 0 0
0 0 0
0 0 0
0 0 0
0 0 0
0 0 0
0 0 0
0 0 0
0 0 0
0 0 0
0 0 0
0 0 0
0 0 0
0 0 0
0 0 0
0 0 0
0 0 0
0 0 0
0 0 0
0 0 0
0 0 0
0 0 0
0 0 0
0 0 0
0 0 0
0 0 0
0 0 0
0 0 0
0 0 0
0 0 0
0 0 0
0 0 0
0 0 0
0 0 0
0 0 0
0 0 0
0 0 0
0 0 0
0 0 0
0 0 0
0 0 0
0 0 0
0 0 0
0 0 0
0 0 0
0 0 0
0 0 0
0 0 0
0 0 0
0 0 0
0 0 0
0 0 0
0 0 0
0 0 0
0 0 0
0 0 0
0 0 0
0 0 0
0 0 0
0 0 0
0 0 0
0 0 0
0 0 0
0 0 0
0 0 0
0 0 0
0 0 0
0 0 0
0 0 0
0 0 0
0 0 0
0 0 0
0 0 0
0 0 0
0 0 0
0 0 0
0 0 0
0 0 0
0 0 0
0 0 0
0 0 0
0 0 0
0 0 0
0 0 0
0 0 0
0 0 0
0 0 0
0 0 0
0 0 0
0 0 0
0 0 0
0 0 0
0 0 0
0 0 0
0 0 0
0 0 0
0 0 0
0 0 0
0 0 0
0 0 0
0 0 0
0 0 0
0 0 0
0 0 0
0 0 0
0 0 0
0 0 0
0 0 0
0 0 0
0 0 0
0 0 0
0 0 0
0 0 0
0 0 0
0 0 0
0 0 0
0 0 0
0 0 0
0 0 0
0 0 0
0 0 0
0 0 0
0 0 0
0 0 0
0 0 0
0 0 0
0 0 0
0 0 0
0 0 0
0 0 0
0 0 0
0 0 0
0 0 0
0 0 0
0 0 0
0 0 0
0 0 0
0 0 0
0 0 0
0 0 0
0 0 0
0 0 0
0 0 0
0 0 0
0 0 0
0 0 0
0 0 0
0 0 0
0 0 0
0 0 0
0 0 0
0 0 0
0 0 0
0 0 0
0 0 0
0 0 0
0 0 0
0 0 0
0 0 0
0 0 0
0 0 0
0 0 0
0 0 0
0 0 0
0 0 0
0 0 0
0 0 0
0 0 0
0 0 0
0 0 0
0 0 0
0 0 0
0 0 0
0 0 0
0 0 0
0 0 0
0 0 0
0 0 0
0 0 0
0 0 0
0 0 0
0 0 0
0 0 0
0 0 0
0 0 0
0 0 0
</DataArray>
<DataArray type="Float64" Name="cell vector length" format="ascii">
0 0 0 0 0 0 0 0 0 0 0 0 0 0 0 0 0 0 0 0 0 0 0 0 0 0 0 0 0 0 0 0 0 0 0 0 0 0 0 0 0 0 0 0 0 0 0 0 0 0 0 0 0 0 0 0 0 0 0 0 0 0 0 0 0 0 0 0 0 0 0 0 0 0 0 0 0 0 0 0 0 0 0 0 0 0 0 0 0 0 0 0 0 0 0 0 0 0 0 0 0 0 0 0 0 0 0 0 0 0 0 0 0 0 0 0 0 0 0 0 0 0 0 0 0 0 0 0 0 0 0 0 0 0 0 0 0 0 0 0 0 0 0 0 0 0 0 0 0 0 0 0 0 0 0 0 0 0 0 0 0 0 0 0 0 0 0 0 0 0 0 0 0 0 0 0 0 0 0 0 0 0 0 0 0 0 0 0 0 0 0 0 0 0 0 0 0 0 0 0 0 0 0 0 0 0 0 0 0 0 0 0 0 0 0 0 0 0 0 0 0 0 0 0 0 0 0 0 0 0 0 0 0 0 0 0 0 0 0 0 0 0 0 0 0 0 0 0 0 0 0 0 0 0 0 0 0 0 0 0 0 0 0 0 0 0 0 0 0 0 0 0 0 0 0 0 0 0 0 0 0 0 0 0 0 0 0 0 0 0 0 0 0 0 0 0 0 0 0 0 0 0 0 0 0 0 0 0 0 0 0 0 0 0 0 0 0 0 0 0 0 0 0 0 0 0 0 0 0 0 0 0 0 0 0 0 0 0 0 0 0 0 0 0 0 0 0 0 0 0 0 0 0 0 0 0 0 0 0 0 0 0 0 0 0 0 0 0 0 0 0 0 0 0 0 0 0 0 0 0 0 0 0 0 0 0 0 0 0 0 0 0 0 0 0 0 0 0 0 0 0 0 0 0 0 0 0 0 0 0 0 0 0 0 0 0 0 
</DataArray>
<DataArray type="Float64" Name="cell variable 4" format="ascii">
0.316217 0.000510187 6.16323e-05 1.07467 0.249242 0.0032488 5.60239e-07 0.94865 0.000319359 0.000137838 0.23011 0.479217 0.23011 1.04461 1.14453e-06 0.000586701 0.334198 0.0032488 0.573608 0.161465 0.0032488 0.99432 0.511974 0.511974 0.000425284 0.495708 0.393381 0.00403603 0.0824302 0.163146 0.332003 0.626025 0.980966 3.42138e-05 0.437452 0.161465 0.36504 0.184973 0.00760007 4.69927e-06 0.252014 0.179448 0.187543 0.179448 0.000160982 0.000319359 0.000137838 0.434405 0.000705084 0.657465 0.848855 0.23011 0.442722 0.33356 0.673042 0.136507 1.06245 0.000237451 1.11547 0.912892 0.573608 0.161465 0.187543 1.07467 1.55471e-05 0.542818 1.12037 0.848855 0.130161 0.393247 4.18495e-05 0.503886 0.45141 0.000237451 0.0976075 0.371127 0.000116047 0.0505895 5.96913e-06 1.61534e-05 5.26566e-05 0.00103121 0.495708 0.0032488 0.118662 4.61276e-06 0.0824302 1.10185 1.14226 0.371127 0.184973 0.708918 5.26566e-05 0.000160982 4.42555e-05 0.00273317 0.118662 3.42138e-05 1.38398e-06 0.163146 0.503886 1.04461 0.249242 0.313432 0.631062 0.919422 0.479217 5.76039e-06 0.434405 0.912892 0.542818 0.00370628 0.000157331 0.673042 0.184059 8.33062e-06 0.542818 6.16323e-05 0.000116047 0.789941 0.00403603 0.153908 0.399988 0.343308 0.393381 0.000425284 0.179448 0.573608 0.99432 0.000705084 0.514292 4.42555e-05 0.789941 0.000705084 0.66381 4.18495e-05 0.50937 4.61276e-06 1.04461 0.0505895 0.184973 1.00681 1.12037 0.393247 0.187543 1.61534e-05 0.66381 1.5044e-05 0.32239 8.68069e-05 0.0773391 0.980966 0.00151096 0.919422 1.00681 0.161465 0.23011 0.790107 0.542818 0.000237451 3.42138e-05 0.94865 0.848855 0.136507 0.187543 0.763876 0.657465 1.68594e-06 0.184973 0.36504 0.27464 0.184973 0.00403603 0.371127 0.163146 0.313432 1.00681 1.00681 0.130161 0.0824302 1.12037 0.179448 0.00760007 0.000331293 0.00103121 2.42345e-06 0.657465 1.11547 0.313432 0.136507 1.23799e-05 0.0646441 1.07467 5.26566e-05 7.58754e-07 0.000209614 0.94865 0.0773391 1.5044e-05 4.18495e-05 0.790107 0.393247 0.161465 1.55471e-05 0.631062 0.50937 0.45141 0.00760007 8.68069e-05 0.442722 0.514292 0.000157331 2.42345e-06 0.495708 0.0773391 0.153908 0.316217 0.136507 0.184973 1.23799e-05 0.252014 0.316217 0.434405 0.00145277 0.000306373 0.8063 0.000331293 0.332003 0.0978407 0.763876 4.42555e-05 0.90618 0.27464 0.187543 0.000510187 0.0646441 1.10185 1.14453e-06 0.00370628 0.631062 1.55471e-05 4.69927e-06 0.343308 0.32239 0.000306373 0.399988 0.90618 0.736473 0.153908 0.0032488 0.00760007 0.393247 0.626025 0.36504 0.316217 0.763876 1.10185 0.27464 0.0097703 0.000705084 0.32239 0.514292 0.184059 1.5044e-05 0.000209614 0.27464 0.0978407 0.0505895 0.437452 4.61276e-06 0.000319359 0.789941 0.136507 0.542818 1.61534e-05 0.000586701 0.136507 0.631062 0.184973 0.0505895 0.187543 3.42138e-05 0.00370628 0.00103121 0.000116047 0.000157331 0.00760007 0.343308 0.50937 0.0097703 0.0505895 0.23011 0.00151096 0.0978407 0.332003 0.0032488 0.000319359 0.184973 0.66381 0.673042 0.912892 0.790107 0.153908 0.179448 0.0646441 0.118662 0.000160982 0.00145277 0.000510187 1.61534e-05 0.631062 0.542818 2.24794e-07 1.07467 0.912892 0.153908 0.130161 1.11547 0.980966 0.8063 0.0824302 0.32239 0.161465 0.399988 0.332003 0.118662 0.153908 1.14226 0.00103121 0.33356 0.163146 0.000137838 0.708918 5.26566e-05 0.626025 5.96913e-06 6.16323e-05 0.495708 0.36504 1.55471e-05 0.542818 0.249242 0.000425284 3.42138e-05 0.000425284 1.06245 0.187543 0.848855 0.000510187 0.434405 0.657465 0.573608 0.919422 0.442722 0.399988 0.252014 0.000137838 0.8063 0.00273317 1.14226 0.000237451 0.343308 6.16323e-05 1.23799e-05 0.919422 0.763876 0.00145277 0.313432 0.789941 1.11547 0.000116047 0.442722 0.0773391 1.10185 3.42138e-05 0.790107 0.136507 0.184059 0.673042 0.00370628 0.66381 0.000160982 1.06245 0.514292 0.0976075 0.00151096 0.252014 0.249242 1.14226 0.000157331 0.626025 1.04461 0.179448 1.61534e-05 0.334198 8.33062e-06 0.00151096 0.511974 1.06245 6.13175e-07 0.0505895 0.736473 5.76039e-06 4.42555e-05 0.511974 0.130161 0.23011 7.29789e-07 0.23011 0.000160982 0.371127 1.5044e-05 8.33062e-06 0.136507 0.0978407 0.45141 0.0032488 
</DataArray>
<DataArray type="Float64" Name="cell variable 5" format="ascii">
0.0909148 0.999974 1 0.00858434 0.138655 0.998946 1 0.0109898 0.99999 0.999998 0.158855 0.0417277 0.158855 0.00908091 1 0.999966 0.082177 0.998946 0.0294962 0.277231 0.998946 0.0100133 0.0367488 0.0367488 0.999982 0.0391044 0.0606986 0.998374 0.595425 0.273099 0.0831765 0.0248813 0.0102849 1 0.0496613 0.277231 0.0698059 0.226167 0.994257 1 0.136034 0.236958 0.221374 0.236958 0.999997 0.99999 0.999998 0.0503251 0.99995 0.0226112 0.0136882 0.158855 0.0485429 0.0824658 0.021599 0.349234 0.00878122 0.999994 0.00797274 0.0118572 0.0294962 0.277231 0.221374 0.00858434 1 0.0328244 0.00790366 0.0136882 0.371169 0.0607373 1 0.037893 0.0467791 0.999994 0.512105 0.0676886 0.999999 0.796223 1 1 1 0.999894 0.0391044 0.998946 0.415271 1 0.595425 0.00816951 0.00760594 0.0676886 0.226167 0.0195097 1 0.999997 1 0.999254 0.415271 1 1 0.273099 0.037893 0.00908091 0.138655 0.0923878 0.0244954 0.0116913 0.0417277 1 0.0503251 0.0118572 0.0328244 0.998628 0.999998 0.021599 0.227907 1 0.0328244 1 0.999999 0.0157727 0.998374 0.296844 0.0588268 0.0782104 0.0606986 0.999982 0.236958 0.0294962 0.0100133 0.99995 0.0364304 1 0.0157727 0.99995 0.0221905 1 0.0371116 1 0.00908091 0.796223 0.226167 0.00976872 0.00790366 0.0607373 0.221374 1 0.0221905 1 0.0877689 0.999999 0.62573 0.0102849 0.999772 0.0116913 0.00976872 0.277231 0.158855 0.0157662 0.0328244 0.999994 1 0.0109898 0.0136882 0.349234 0.221374 0.016849 0.0226112 1 0.226167 0.0698059 0.117059 0.226167 0.998374 0.0676886 0.273099 0.0923878 0.00976872 0.00976872 0.371169 0.595425 0.00790366 0.236958 0.994257 0.999989 0.999894 1 0.0226112 0.00797274 0.0923878 0.349234 1 0.705275 0.00858434 1 1 0.999996 0.0109898 0.62573 1 1 0.0157662 0.0607373 0.277231 1 0.0244954 0.0371116 0.0467791 0.994257 0.999999 0.0485429 0.0364304 0.999998 1 0.0391044 0.62573 0.296844 0.0909148 0.349234 0.226167 1 0.136034 0.0909148 0.0503251 0.999789 0.999991 0.0151488 0.999989 0.0831765 0.510913 0.016849 1 0.0120314 0.117059 0.221374 0.999974 0.705275 0.00816951 1 0.998628 0.0244954 1 1 0.0782104 0.0877689 0.999991 0.0588268 0.0120314 0.0181031 0.296844 0.998946 0.994257 0.0607373 0.0248813 0.0698059 0.0909148 0.016849 0.00816951 0.117059 0.990544 0.99995 0.0877689 0.0364304 0.227907 1 0.999996 0.117059 0.510913 0.796223 0.0496613 1 0.99999 0.0157727 0.349234 0.0328244 1 0.999966 0.349234 0.0244954 0.226167 0.796223 0.221374 1 0.998628 0.999894 0.999999 0.999998 0.994257 0.0782104 0.0371116 0.990544 0.796223 0.158855 0.999772 0.510913 0.0831765 0.998946 0.99999 0.226167 0.0221905 0.021599 0.0118572 0.0157662 0.296844 0.236958 0.705275 0.415271 0.999997 0.999789 0.999974 1 0.0244954 0.0328244 1 0.00858434 0.0118572 0.296844 0.371169 0.00797274 0.0102849 0.0151488 0.595425 0.0877689 0.277231 0.0588268 0.0831765 0.415271 0.296844 0.00760594 0.999894 0.0824658 0.273099 0.999998 0.0195097 1 0.0248813 1 1 0.0391044 0.0698059 1 0.0328244 0.138655 0.999982 1 0.999982 0.00878122 0.221374 0.0136882 0.999974 0.0503251 0.0226112 0.0294962 0.0116913 0.0485429 0.0588268 0.136034 0.999998 0.0151488 0.999254 0.00760594 0.999994 0.0782104 1 1 0.0116913 0.016849 0.999789 0.0923878 0.0157727 0.00797274 0.999999 0.0485429 0.62573 0.00816951 1 0.0157662 0.349234 0.227907 0.021599 0.998628 0.0221905 0.999997 0.00878122 0.0364304 0.512105 0.999772 0.136034 0.138655 0.00760594 0.999998 0.0248813 0.00908091 0.236958 1 0.082177 1 0.999772 0.0367488 0.00878122 1 0.796223 0.0181031 1 1 0.0367488 0.371169 0.158855 1 0.158855 0.999997 0.0676886 1 1 0.349234 0.510913 0.0467791 0.998946 
</DataArray>
<DataArray type="Float64" Name="cell variable 6" format="ascii">
0.0038835 1.00883 1.00913 5.3719e-06 0.0566856 1.00681 1.00917 1.10661e-05 1.00896 1.00908 0.0671729 0.00051123 0.0671729 6.33494e-06 1.00917 1.00878 0.00576492 1.00681 0.000187165 0.298329 1.00681 8.43313e-06 0.00035504 0.00035504 1.00889 0.000410215 0.00151522 1.00605 0.752638 0.294057 0.00364689 0.000115922 9.11938e-06 1.00915 0.000885689 0.298329 0.0019794 0.208208 1.00277 1.00917 0.0441278 0.235078 0.185318 0.235078 1.00907 1.00896 1.00908 0.000857904 1.0087 8.84138e-05 2.09522e-05 0.0671729 0.000858618 0.00403961 7.76673e-05 0.432355 5.74138e-06 1.00902 4.32387e-06 1.38076e-05 0.000187165 0.298329 0.185318 5.3719e-06 1.00916 0.000251962 4.21468e-06 2.09522e-05 0.477444 0.00202135 1.00915 0.000380196 0.000696942 1.00902 0.67289 0.0019189 1.0091 0.900072 1.00917 1.00916 1.00914 1.00849 0.000410215 1.00681 0.533485 1.00917 0.752638 4.64493e-06 3.76475e-06 0.0019189 0.208208 5.81379e-05 1.00914 1.00907 1.00914 1.00716 0.533485 1.00915 1.00917 0.294057 0.000380196 6.33494e-06 0.0566856 0.00439847 0.000110922 1.32528e-05 0.00051123 1.00917 0.000857904 1.38076e-05 0.000251962 1.00642 1.00907 7.76673e-05 0.235443 1.00917 0.000251962 1.00913 1.0091 3.156e-05 1.00605 0.3398 0.00127682 0.00310284 0.00151522 1.00889 0.235078 0.000187165 8.43313e-06 1.0087 0.000349016 1.00914 3.156e-05 1.0087 8.3838e-05 1.00915 0.000394946 1.00917 6.33494e-06 0.900072 0.208208 7.8448e-06 4.21468e-06 0.00202135 0.185318 1.00916 8.3838e-05 1.00916 0.00628005 1.00912 0.780596 9.11938e-06 1.00816 1.32528e-05 7.8448e-06 0.298329 0.0671729 3.15261e-05 0.000251962 1.00902 1.00915 1.10661e-05 2.09522e-05 0.432355 0.185318 3.81646e-05 8.84138e-05 1.00917 0.208208 0.0019794 0.02163 0.208208 1.00605 0.0019189 0.294057 0.00439847 7.8448e-06 7.8448e-06 0.477444 0.752638 4.21468e-06 0.235078 1.00277 1.00895 1.00849 1.00917 8.84138e-05 4.32387e-06 0.00439847 0.432355 1.00917 0.841792 5.3719e-06 1.00914 1.00917 1.00904 1.10661e-05 0.780596 1.00916 1.00915 3.15261e-05 0.00202135 0.298329 1.00916 0.000110922 0.000394946 0.000696942 1.00277 1.00912 0.000858618 0.000349016 1.00907 1.00917 0.000410215 0.780596 0.3398 0.0038835 0.432355 0.208208 1.00917 0.0441278 0.0038835 0.000857904 1.00814 1.00897 2.80904e-05 1.00895 0.00364689 0.674122 3.81646e-05 1.00914 1.4406e-05 0.02163 0.185318 1.00883 0.841792 4.64493e-06 1.00917 1.00642 0.000110922 1.00916 1.00917 0.00310284 0.00628005 1.00897 0.00127682 1.4406e-05 4.69278e-05 0.3398 1.00681 1.00277 0.00202135 0.000115922 0.0019794 0.0038835 3.81646e-05 4.64493e-06 0.02163 1.00014 1.0087 0.00628005 0.000349016 0.235443 1.00916 1.00904 0.02163 0.674122 0.900072 0.000885689 1.00917 1.00896 3.156e-05 0.432355 0.000251962 1.00916 1.00878 0.432355 0.000110922 0.208208 0.900072 0.185318 1.00915 1.00642 1.00849 1.0091 1.00907 1.00277 0.00310284 0.000394946 1.00014 0.900072 0.0671729 1.00816 0.674122 0.00364689 1.00681 1.00896 0.208208 8.3838e-05 7.76673e-05 1.38076e-05 3.15261e-05 0.3398 0.235078 0.841792 0.533485 1.00907 1.00814 1.00883 1.00916 0.000110922 0.000251962 1.00917 5.3719e-06 1.38076e-05 0.3398 0.477444 4.32387e-06 9.11938e-06 2.80904e-05 0.752638 0.00628005 0.298329 0.00127682 0.00364689 0.533485 0.3398 3.76475e-06 1.00849 0.00403961 0.294057 1.00908 5.81379e-05 1.00914 0.000115922 1.00917 1.00913 0.000410215 0.0019794 1.00916 0.000251962 0.0566856 1.00889 1.00915 1.00889 5.74138e-06 0.185318 2.09522e-05 1.00883 0.000857904 8.84138e-05 0.000187165 1.32528e-05 0.000858618 0.00127682 0.0441278 1.00908 2.80904e-05 1.00716 3.76475e-06 1.00902 0.00310284 1.00913 1.00917 1.32528e-05 3.81646e-05 1.00814 0.00439847 3.156e-05 4.32387e-06 1.0091 0.000858618 0.780596 4.64493e-06 1.00915 3.15261e-05 0.432355 0.235443 7.76673e-05 1.00642 8.3838e-05 1.00907 5.74138e-06 0.000349016 0.67289 1.00816 0.0441278 0.0566856 3.76475e-06 1.00907 0.000115922 6.33494e-06 0.235078 1.00916 0.00576492 1.00917 1.00816 0.00035504 5.74138e-06 1.00917 0.900072 4.69278e-05 1.00917 1.00914 0.00035504 0.477444 0.0671729 1.00917 0.0671729 1.00907 0.0019189 1.00916 1.00917 0.432355 0.674122 0.000696942 1.00681 
</DataArray>
<DataArray type="Float64" Name="cell variable 7" format="ascii">
0.357275 0.805214 0.804393 0.0863829 0.413855 0.731648 0.910934 0.109939 0.786592 0.818915 0.46057 0.24144 0.46057 0.091923 0.908704 0.789622 0.334908 0.731648 0.203114 0.543895 0.731648 0.10127 0.2268 0.2268 0.777768 0.233945 0.290041 0.781706 0.652741 0.531783 0.340125 0.185875 0.103782 0.881455 0.262734 0.543895 0.311423 0.488241 0.695937 0.865788 0.422896 0.481302 0.511928 0.481302 0.804465 0.786592 0.818915 0.264653 0.790771 0.176526 0.129973 0.46057 0.259721 0.337987 0.172124 0.58017 0.0886341 0.815305 0.0788486 0.116913 0.203114 0.543895 0.511928 0.0863829 0.87201 0.214434 0.0779382 0.129973 0.557964 0.288948 0.828165 0.230311 0.255368 0.815305 0.58928 0.306453 0.821805 0.667622 0.876672 0.855098 0.808066 0.74517 0.233945 0.731648 0.633332 0.89681 0.652741 0.0813708 0.0738515 0.306453 0.488241 0.162493 0.808066 0.804465 0.85435 0.786302 0.633332 0.881455 0.900885 0.531783 0.230311 0.091923 0.413855 0.360012 0.184332 0.115625 0.24144 0.912087 0.264653 0.116913 0.214434 0.736426 0.802201 0.172124 0.426674 0.869271 0.214434 0.804393 0.821805 0.142859 0.781706 0.544906 0.285858 0.329428 0.290041 0.777768 0.481302 0.203114 0.10127 0.790771 0.225806 0.85435 0.142859 0.790771 0.174715 0.828165 0.227704 0.89681 0.091923 0.667622 0.488241 0.0989326 0.0779382 0.288948 0.511928 0.855098 0.174715 0.867885 0.347352 0.812727 0.646851 0.103782 0.723507 0.115625 0.0989326 0.543895 0.46057 0.142821 0.214434 0.815305 0.881455 0.109939 0.129973 0.58017 0.511928 0.148901 0.176526 0.922196 0.488241 0.311423 0.399197 0.488241 0.781706 0.306453 0.531783 0.360012 0.0989326 0.0989326 0.557964 0.652741 0.0779382 0.481302 0.695937 0.823381 0.74517 0.886845 0.176526 0.0788486 0.360012 0.58017 0.864126 0.663687 0.0863829 0.808066 0.900971 0.803638 0.109939 0.646851 0.867885 0.828165 0.142821 0.288948 0.543895 0.87201 0.184332 0.227704 0.255368 0.695937 0.812727 0.259721 0.225806 0.802201 0.886845 0.233945 0.646851 0.544906 0.357275 0.58017 0.488241 0.864126 0.422896 0.357275 0.264653 0.822606 0.774006 0.139181 0.823381 0.340125 0.570965 0.148901 0.85435 0.118245 0.399197 0.511928 0.805214 0.663687 0.0813708 0.908704 0.736426 0.184332 0.87201 0.865788 0.329428 0.347352 0.774006 0.285858 0.118245 0.15552 0.544906 0.731648 0.695937 0.288948 0.185875 0.311423 0.357275 0.148901 0.0813708 0.399197 0.724735 0.790771 0.347352 0.225806 0.426674 0.867885 0.803638 0.399197 0.570965 0.667622 0.262734 0.89681 0.786592 0.142859 0.58017 0.214434 0.855098 0.789622 0.58017 0.184332 0.488241 0.667622 0.511928 0.881455 0.736426 0.74517 0.821805 0.802201 0.695937 0.329428 0.227704 0.724735 0.667622 0.46057 0.723507 0.570965 0.340125 0.731648 0.786592 0.488241 0.174715 0.172124 0.116913 0.142821 0.544906 0.481302 0.663687 0.633332 0.804465 0.822606 0.805214 0.855098 0.184332 0.214434 0.921969 0.0863829 0.116913 0.544906 0.557964 0.0788486 0.103782 0.139181 0.652741 0.347352 0.543895 0.285858 0.340125 0.633332 0.544906 0.0738515 0.74517 0.337987 0.531783 0.818915 0.162493 0.808066 0.185875 0.876672 0.804393 0.233945 0.311423 0.87201 0.214434 0.413855 0.777768 0.881455 0.777768 0.0886341 0.511928 0.129973 0.805214 0.264653 0.176526 0.203114 0.115625 0.259721 0.285858 0.422896 0.818915 0.139181 0.786302 0.0738515 0.815305 0.329428 0.804393 0.864126 0.115625 0.148901 0.822606 0.360012 0.142859 0.0788486 0.821805 0.259721 0.646851 0.0813708 0.881455 0.142821 0.58017 0.426674 0.172124 0.736426 0.174715 0.804465 0.0886341 0.225806 0.58928 0.723507 0.422896 0.413855 0.0738515 0.802201 0.185875 0.091923 0.481302 0.855098 0.334908 0.869271 0.723507 0.2268 0.0886341 0.926956 0.667622 0.15552 0.912087 0.85435 0.2268 0.557964 0.46057 0.91184 0.46057 0.804465 0.306453 0.867885 0.869271 0.58017 0.570965 0.255368 0.731648 
</DataArray>
<DataArray type="Float64" Name="cell variable 8" format="ascii">