<VTKFile type="UnstructuredGrid" version="0.1">
<UnstructuredGrid>
<Piece  NumberOfPoints="    3344" NumberOfCells="    2455">
<Points>
<DataArray type="Float64" NumberOfComponents="3" format="ascii">
-27.2962 32.9861 0 
8.39656 8.18583 0 
48.1616 -5.96174 0 
1.2242 -59.5341 0 
-26.0762 46.3551 0 
-36.1527 16.4987 0 
7.91747 -41.3773 0 
-39.6982 -50.4017 0 
-0.0675253 -49.7539 0 
1.40103 -26.0307 0 
-60.0391 14.5243 0 
45.4227 -21.6843 0 
-13.6667 39.3015 0 
6.43893 -61.3676 0 
13.0047 12.7509 0 
-10.1616 -40.5592 0 
-19.8414 17.5315 0 
-48.5177 30.1285 0 
-28.2095 -36.6667 0 
30.1924 -18.4022 0 
23.0503 57.2315 0 
38.3489 -20.264 0 
-47.8203 -39.5377 0 
5.40361 0.564203 0 
0.952413 -29.9368 0 
52.8344 -9.90099 0 
-25.0655 -31.5101 0 
-26.1196 -52.9537 0 
-54.5308 15.1477 0 
-60.3057 -12.3398 0 
25.7738 48.1896 0 
42.9911 22.0294 0 
-21.1755 31.4778 0 
-28.233 -2.03026 0 
-27.5128 -13.5262 0 
-11.3825 -40.336 0 
-13.3846 34.3783 0 
-8.73486 48.4192 0 
-6.15968 3.9794 0 
10.263 -44.9174 0 
37.8781 33.7273 0 
-48.1921 -3.76697 0 
-0.186914 -9.72226 0 
47.1006 15.424 0 
16.9891 46.9193 0 
-26.5354 40.2052 0 
-12.2904 -1.00584 0 
-26.5889 32.0696 0 
5.70916 20.6258 0 
-4.40066 -41.6066 0 
39.2323 -34.1246 0 
-0.764304 -30.0762 0 
-24.3425 -8.91062 0 
44.0027 -40.4837 0 
-24.4582 -23.161 0 
-42.4304 6.69772 0 
-9.70695 -50.6932 0 
36.6705 -39.1146 0 
13.2971 -26.2383 0 
17.0134 52.7875 0 
-25.6656 32.07 0 
-33.8351 0.326118 0 
-5.15044 -41.8418 0 
39.9511 -25.5797 0 
48.3347 9.54365 0 
8.88915 56.0678 0 
23.8151 30.2076 0 
-22.9504 -36.5402 0 
23.2996 -16.9725 0 
-31.3627 39.5758 0 
14.3145 -3.77288 0 
-16.7865 36.0921 0 
40.6594 -42.0369 0 
33.9423 -13.051 0 
17.8581 2.3558 0 
-46.4226 -19.9239 0 
23.8226 -26.2779 0 
-30.8529 -31.1994 0 
25.423 -45.6913 0 
-10.9638 48.6304 0 
-33.1701 0.0646559 0 
30.0575 -37.858 0 
-9.91305 -10.5253 0 
-13.5003 -41.117 0 
53.0759 26.4648 0 
0.0179232 25.8393 0 
29.7409 10.5018 0 
-1.0218 57.0448 0 
-45.5958 8.74365 0 
-37.0505 -9.27004 0 
1.91611 -47.5589 0 
-28.2333 -28.0223 0 
23.6722 31.7656 0 
52.3797 -14.0281 0 
29.2265 -38.5387 0 
22.8519 21.2907 0 
29.7809 -2.25048 0 
-21.3301 39.9018 0 
37.8038 17.0319 0 
11.4451 -35.0228 0 
-41.6755 -34.2084 0 
-50.3175 21.8346 0 
49.4828 12.7616 0 
-15.3923 -4.34241 0 
31.6532 -3.66951 0 
-14.0376 -1.03853 0 
-62.3359 -4.7255 0 
30.7297 -2.65406 0 
17.4565 -30.8072 0 
-53.4595 8.88385 0 
6.72455 -42.1905 0 
-17.3254 12.4603 0 
-28.7558 -52.2899 0 
24.8521 40.4331 0 
48.1962 -19.9158 0 
36.2422 -41.1342 0 
-31.7931 -28.8213 0 
7.10933 -24.6162 0 
-5.09858 -22.8303 0 
38.6994 -4.95975 0 
31.1981 7.73352 0 
6.74985 -0.860516 0 
30.4623 -53.2826 0 
-0.300348 12.7234 0 
13.7272 -59.0835 0 
-34.7853 -35.9765 0 
-15.4297 -21.3736 0 
44.3812 -40.052 0 
-43.1955 -15.2566 0 
9.20001 -53.7429 0 
21.2751 -38.9767 0 
-22.4449 -2.00653 0 
-44.7839 -32.7888 0 
-12.7046 -18.2245 0 
37.6148 -21.6499 0 
-47.5851 -17.1953 0 
33.4772 -5.82505 0 
34.502 -28.7632 0 
-48.5506 -8.06563 0 
-26.7213 45.7659 0 
-54.2732 4.12855 0 
42.5264 -19.5189 0 
11.4946 23.562 0 
-5.62567 16.3784 0 
-33.6714 7.16013 0 
3.46461 32.5831 0 
19.5536 39.8749 0 
23.2988 -26.1376 0 
43.0611 22.9238 0 
13.363 42.6681 0 
53.6028 -3.38511 0 
40.5854 12.5313 0 
-27.4565 -2.19217 0 
-22.9263 46.7403 0 
28.6766 -33.3932 0 
22.5831 36.6488 0 
8.88249 19.7448 0 
19.6924 12.6257 0 
-57.7962 -10.2753 0 
8.15811 36.3383 0 
-22.6898 -3.81336 0 
-13.4196 -14.8606 0 
3.58392 61.0592 0 
-46.344 37.3079 0 
35.6913 9.95179 0 
22.8056 -7.60021 0 
25.2842 33.7282 0 
17.3432 -18.4407 0 
-3.81158 52.9779 0 
-17.4002 -25.6299 0 
55.6776 20.6126 0 
-15.5145 55.5129 0 
-35.2704 14.9108 0 
52.918 13.4088 0 
5.72294 -8.75973 0 
-29.6199 40.3214 0 
-13.8969 25.8557 0 
-27.3583 3.62824 0 
24.1256 29.7528 0 
14.2424 -8.28661 0 
-23.87 -56.1874 0 
-41.6685 -20.7252 0 
-46.6072 22.571 0 
-3.27253 -51.6374 0 
-51.4871 24.3461 0 
46.8526 -28.1259 0 
-37.341 10.4528 0 
11.0833 29.7233 0 
-35.37 48.8942 0 
-28.0329 -12.7358 0 
49.7202 0.094971 0 
-54.0468 15.4517 0 
-40.6246 14.2656 0 
48.8783 -30.2789 0 
-26.7078 5.39968 0 
30.5176 -18.7125 0 
41.4238 37.3974 0 
-19.2886 10.702 0 
55.4887 -20.0209 0 
-17.4568 41.8098 0 
45.7991 -25.794 0 
30.1445 -2.56178 0 
-15.3099 11.2515 0 
-22.2248 46.5705 0 
-13.1182 -31.9534 0 
-1.10793 15.1241 0 
25.4957 -25.4085 0 
-14.0525 36.3225 0 
-1.94038 -5.15996 0 
-37.4246 18.6696 0 
22.5131 -56.5891 0 
52.6076 13.2084 0 
46.5539 36.2506 0 
1.13424 48.435 0 
6.40098 25.8936 0 
-22.7438 -46.9685 0 
-32.8745 28.4348 0 
-3.83195 41.2741 0 
38.886 -1.05302 0 
-4.89052 26.8951 0 
-13.9496 19.3038 0 
-26.8027 3.91778 0 
37.65 -47.8393 0 
20.9172 -56.6021 0 
12.2986 25.3853 0 
18.6167 -32.8039 0 
13.5388 -50.7663 0 
-3.87147 51.8392 0 
42.4341 -33.0351 0 
39.8164 -42.4842 0 
-52.7154 -24.7051 0 
16.411 -2.44315 0 
-30.2698 23.7716 0 
-2.92622 -52.2256 0 
-55.0885 -21.0468 0 
20.0935 -39.2346 0 
-48.4016 -12.3338 0 
-8.83587 6.41573 0 
-24.5084 11.3766 0 
-20.8698 -17.1407 0 
29.6688 -54.5492 0 
-8.58557 -61.9849 0 
-28.8486 51.6253 0 
-39.0031 -1.87322 0 
22.3311 -11.3427 0 
-32.7064 15.5922 0 
1.92201 12.9709 0 
-4.97856 -21.7825 0 
-9.5562 18.3465 0 
12.4557 49.6308 0 
-10.3541 -44.9033 0 
47.4035 39.4852 0 
-36.4866 -17.9877 0 
26.707 -10.7969 0 
6.9929 -20.2794 0 
36.5856 -38.4299 0 
-29.6109 -6.54021 0 
10.1116 -31.0767 0 
26.7282 -2.31985 0 
14.8004 -49.9537 0 
-21.1336 -32.4485 0 
-36.7865 -27.0335 0 
-26.4089 16.2378 0 
40.3942 -33.0831 0 
3.0474 -16.5688 0 
46.0138 31.7035 0 
-9.58682 8.7954 0 
0.503463 42.9485 0 
12.104 -40.6472 0 
51.1857 32.6395 0 
-12.7584 26.7676 0 
33.9493 46.451 0 
-24.24 -38.0266 0 
40.6198 20.4634 0 
16.2632 9.0964 0 
-7.42054 -62.0942 0 
53.7831 16.5945 0 
-25.1009 20.5122 0 
-19.1096 -39.8126 0 
-6.05905 -4.84809 0 
10.2173 36.7929 0 
-35.2199 0.241349 0 
36.5447 -48.6865 0 
36.4272 32.7261 0 
0.0098972 -45.5689 0 
-55.3631 28.5077 0 
-54.9641 15.4804 0 
15.4436 59.291 0 
-46.3331 37.8769 0 
39.3021 6.00548 0 
-30.3228 -12.8676 0 
-4.76172 -24.8049 0 
-3.16513 16.9863 0 
-51.2324 -24.8115 0 
47.8038 6.6226 0 
41.4499 -8.28468 0 
-10.3925 -26.0954 0 
-1.22402 25.0397 0 
-56.3277 -18.4273 0 
-5.27741 -27.8996 0 
9.86267 43.9897 0 
7.35457 20.0035 0 
51.9383 -13.4029 0 
-6.82068 43.536 0 
3.86206 40.7578 0 
-45.9431 20.2972 0 
7.94922 30.5971 0 
1.60541 13.2362 0 
32.7772 21.6332 0 
20.8398 23.9431 0 
-10.527 -60.6088 0 
24.7865 -49.2679 0 
-42.2941 3.57943 0 
-40.6171 -34.8982 0 
-38.0498 48.2332 0 
33.7511 46.3943 0 
-47.0254 -40.716 0 
-5.22636 -12.8321 0 
-47.4648 22.6727 0 
34.0596 -33.3819 0 
40.5283 42.8806 0 
28.559 -6.26583 0 
-3.91397 39.0631 0 
21.8667 1.42165 0 
43.9194 30.4566 0 
-33.5819 32.9229 0 
52.8519 -10.4509 0 
6.31146 -20.0102 0 
-35.7473 38.9691 0 
-23.2231 0.09864 0 
15.4684 -10.471 0 
-29.3876 51.5595 0 
-36.1535 -28.2309 0 
57.8738 8.4198 0 
17.1229 24.2967 0 
16.8896 -17.4359 0 
-43.4057 -29.1737 0 
-42.1695 26.5185 0 
-38.7985 -5.60679 0 
32.5356 -50.1773 0 
-39.0786 24.5461 0 
-27.4101 -26.3536 0 
19.4026 -35.5885 0 
39.5223 6.36503 0 
-44.382 -43.3386 0 
-16.5606 50.4051 0 
-1.81483 16.3794 0 
-49.6129 -6.30551 0 
-8.57714 5.17085 0 
-17.7757 -44.6097 0 
-27.3207 31.2827 0 
-12.4262 -32.1469 0 
-14.4052 4.87318 0 
23.3835 -45.9875 0 
60.3516 -17.6124 0 
-18.0578 30.7715 0 
-37.5779 20.3169 0 
35.0806 -28.8408 0 
-41.6851 12.2855 0 
-34.3554 40.0741 0 
45.7725 -23.943 0 
-7.73765 -40.7254 0 
-39.2833 34.3316 0 
-18.3989 5.97977 0 
-33.8819 -39.5712 0 
-41.9035 -42.1816 0 
-8.30942 32.402 0 
39.501 25.4085 0 
45.4458 16.2558 0 
0.137196 -0.573231 0 
-1.12506 -17.615 0 
-17.4135 -42.2892 0 
-55.1022 -1.39188 0 
18.2164 48.1449 0 
2.80971 -17.1495 0 
-31.3723 -29.6278 0 
28.3697 -32.2404 0 
0.243281 -30.2581 0 
-10.0978 9.95095 0 
36.2935 45.1469 0 
-52.4206 7.26346 0 
-22.9833 22.1468 0 
52.6369 5.23126 0 
-22.5366 -57.2853 0 
-13.4121 -47.9303 0 
-25.0569 13.8445 0 
33.0468 20.6738 0 
49.4667 19.0539 0 
-7.96136 28.4183 0 
-25.3569 31.0321 0 
47.1995 -13.1718 0 
-5.11563 3.37482 0 
16.8691 -56.5021 0 
44.5777 -0.890668 0 
14.4681 -7.29852 0 
-32.6012 1.6729 0 
-41.957 -21.3869 0 
-37.7201 -45.503 0 
-9.62624 27.6287 0 
37.6816 -36.694 0 
31.6782 -22.8004 0 
-14.3692 -20.8635 0 
40.0911 -18.6087 0 
-44.8928 14.7234 0 
11.9281 55.7695 0 
-42.2464 0.228166 0 
-14.7562 -58.2134 0 
-20.019 10.5226 0 
-5.35349 -34.2761 0 
9.62118 18.2509 0 
6.4576 55.002 0 
30.1807 22.195 0 
24.5859 15.799 0 
-56.6932 -2.65084 0 
-30.7688 -44.0164 0 
28.9062 50.0666 0 
-5.67908 0.51822 0 
-0.796366 7.90514 0 
-37.6536 -6.76213 0 
31.689 -27.8648 0 
28.4003 44.4633 0 
17.1183 29.7103 0 
-35.184 -28.9615 0 
53.4497 -23.2365 0 
36.5433 15.7039 0 
33.8758 52.9834 0 
-33.1508 -20.6827 0 
21.7635 57.2093 0 
-30.7926 24.5998 0 
6.33097 12.4516 0 
15.26 -24.2893 0 
28.5561 26.9912 0 
-36.1516 11.6784 0 
55.0485 11.9896 0 
-17.7309 -0.890074 0 
-49.2162 -7.34054 0 
-36.3848 -34.1905 0 
5.33518 -6.0732 0 
-17.6402 27.0679 0 
35.0778 0.523103 0 
-10.1573 -15.8403 0 
41.8059 3.97267 0 
22.4089 -45.8601 0 
36.6388 6.87123 0 
-31.5628 28.9435 0 
-20.791 -17.7285 0 
-54.6377 -21.5207 0 
-43.0342 -43.3867 0 
-21.8547 45.7144 0 
-40.8948 -35.6305 0 
40.8392 -33.143 0 
40.1427 -5.61628 0 
-18.3612 35.9765 0 
2.05263 31.8627 0 
-10.6623 -40.2317 0 
-31.4644 -50.0932 0 
-32.5856 -45.9622 0 
11.2113 -17.0491 0 
-11.4029 53.9131 0 
15.954 8.27109 0 
-40.1208 33.8928 0 
-21.6353 -16.6869 0 
29.0394 35.759 0 
-19.4553 25.3619 0 
-36.5915 11.3787 0 
10.1534 -19.6321 0 
-30.7745 39.4949 0 
-57.6229 -16.2461 0 
13.9931 -50.7347 0 
45.1295 16.8105 0 
-24.9754 -9.09751 0 
6.22053 -42.7944 0 
-32.5274 -49.5434 0 
26.0388 -44.7697 0 
-11.0334 -48.9385 0 
-7.65966 -16.3905 0 
-0.36644 -18.1804 0 
32.0338 -22.1062 0 
-3.11423 58.4703 0 
60.5176 -15.6819 0 
11.2896 29.4584 0 
-15.5182 41.1323 0 
11.1409 -16.6109 0 
-8.51423 -5.06308 0 
8.83557 -39.8851 0 
-6.55553 -4.62798 0 
-39.485 42.0778 0 
23.0722 -6.69947 0 
4.14763 -11.238 0 
-6.37519 -21.078 0 
18.369 1.57358 0 
[...]
<CellData Scalars="wall variable 0">
<DataArray type="Float64" Name="wall length" format="ascii">
0.76662 5.96703 1.59764 4.16474 5.04244 0.549027 5.43128 0.868515 5.32976 0.693057 10.9741 2.72873 1.47024 1.69732 5.13292 2.50414 5.50806 2.01084 9.79277 1.6889 0.31226 9.25761 1.02982 1.24368 5.49237 3.52061 2.10242 2.38145 3.52289 5.2338 5.10075 4.11988 2.70984 4.59972 0.68649 2.58357 4.36973 3.1961 0.358042 0.572014 7.11696 6.53331 1.99769 6.54469 4.39814 1.82702 3.34408 1.49234 5.57189 4.68927 4.60093 0.457183 1.16566 5.01523 0.762761 4.95172 9.60127 2.39115 7.81125 0.22814 8.67685 2.29406 3.95498 1.30733 4.40429 0.120727 7.10747 2.95058 1.07689 2.39115 1.17816 3.54253 0.634699 4.6106 0.439901 1.63584 1.06314 3.61219 3.80374 1.4549 6.10736 3.51063 0.378759 2.40968 4.57745 0.736685 0.304008 5.88618 3.05991 1.25931 5.97014 2.46492 0.634699 7.49504 0.664358 5.85976 1.38502 2.37944 2.41282 2.16802 1.0412 7.08239 2.59141 2.79456 5.83889 4.05781 4.06368 2.38151 1.15232 0.46887 3.51063 4.29802 3.55654 3.31797 2.27073 1.12964 3.56236 4.00146 3.58938 2.70984 0.855327 0.345658 3.11497 3.19487 1.36179 5.89089 1.45848 7.05374 0.432126 1.49437 2.12379 4.94422 1.3541 1.84627 1.68656 7.14074 0.805232 3.62364 5.63552 2.7592 2.9364 3.59955 0.796772 1.60636 0.701287 7.06297 5.01523 7.32834 1.79662 5.61064 2.16718 2.6047 2.41569 5.79937 6.99485 0.859432 5.99087 0.673758 1.26241 2.04782 9.10916 0.481678 5.15441 1.49675 3.86833 7.86919 0.963528 5.65096 0.474391 2.9498 2.1653 7.62746 0.981014 8.39274 0.451592 0.554116 1.88685 6.11882 2.11343 0.812995 1.47495 6.30227 2.78018 3.0787 3.48645 3.99262 1.26791 6.12723 1.96254 1.14501 8.41974 1.22443 7.96937 0.333806 3.5569 0.34453 3.07212 2.12527 1.30274 3.66651 4.60416 0.84095 2.58 0.492296 2.43199 0.376107 1.49675 0.485785 0.761392 3.59815 1.53265 3.98694 7.89012 0.480534 8.22048 6.16423 2.27073 2.04555 1.00249 3.25254 2.06572 0.646144 1.24077 6.12723 9.33713 1.96014 8.96416 0.149959 4.34357 3.24572 0.293536 1.36137 2.45836 5.97014 2.77458 1.02588 7.14836 0.530168 7.91641 3.65982 1.5714 8.28626 3.24915 4.74343 4.14818 5.92831 4.72857 1.26241 0.892334 7.71899 4.16583 0.135198 10.8277 1.49929 3.69963 6.76682 2.11343 0.980576 4.8551 4.08487 2.35704 2.62469 2.81516 5.90494 0.886983 5.50971 1.54509 8.65481 3.41222 5.1629 0.611236 1.74407 2.14471 1.65078 5.36795 4.01606 4.26089 2.73888 2.38149 5.91656 5.5774 4.97463 0.750749 5.01976 1.22998 1.75609 4.84045 0.663407 6.49935 4.92754 4.84157 2.39142 6.53331 0.361868 5.06953 4.38309 5.95875 0.179659 1.60648 6.81671 1.97043 3.0787 3.25428 2.63866 8.09892 0.621047 5.59838 4.73377 1.39682 0.169324 4.12527 2.98096 1.01381 10.1387 0.694666 3.10845 6.68072 2.41282 2.97077 1.14438 1.10435 2.16593 3.6504 2.24866 5.85491 1.49929 6.46215 3.59237 1.75158 4.52516 0.619631 4.61954 4.20284 3.62193 3.14345 0.738512 3.493 8.17565 0.749393 1.21455 1.21613 6.73379 5.1266 4.22457 2.29437 8.04812 5.09497 6.16039 0.926439 1.96684 3.61971 4.29802 5.88618 2.73293 0.675159 2.543 0.713459 0.701804 2.99583 6.11178 1.3971 2.73484 8.22048 5.90494 1.31087 4.4746 4.21216 5.48367 1.19949 1.19079 2.00726 6.53277 1.01475 9.79277 0.298766 1.36179 1.40161 3.54181 3.65982 0.241355 8.90905 0.531481 5.53846 0.68649 4.09354 0.638288 1.77265 4.3883 2.511 6.047 0.232021 1.87772 3.4397 1.23828 1.41451 0.202458 3.62193 0.423623 0.709556 5.12962 0.748718 1.96684 9.67345 1.0412 8.70724 1.72056 1.75609 0.549385 7.19787 0.804347 5.02465 2.35023 4.08359 5.11867 5.28329 5.67146 0.170179 4.50542 1.85737 4.24073 3.10926 3.33116 1.16815 6.47879 1.15232 7.51239 3.41653 4.11447 4.6049 0.749393 6.65205 0.524946 6.06416 0.393784 6.39317 1.72056 1.04189 7.34467 0.350666 4.85271 4.84045 0.797584 7.13403 1.10435 3.21582 7.65826 2.9162 1.75158 1.45234 1.92191 2.46108 6.09688 4.27011 3.83899 5.16514 3.12235 2.77661 0.350666 0.160016 4.11447 1.27832 1.17847 2.24257 2.18418 5.59518 5.63418 0.767763 3.94785 8.54242 1.01266 2.76902 7.98591 0.549311 1.36137 9.77625 0.670038 0.86306 7.79535 4.3604 2.04731 2.78822 1.2131 6.87627 4.7875 4.77939 0.531481 4.59972 5.89089 0.298766 1.65514 2.89407 1.49289 4.91892 5.45491 3.92641 7.08113 4.8701 0.445411 0.481678 2.67001 3.51912 2.35168 4.76605 1.24368 5.43032 0.963528 2.05351 1.09357 2.41234 0.417572 5.10075 1.1826 0.385886 6.20854 0.567467 5.1266 0.590716 6.2588 2.41451 3.5569 5.00703 7.82472 0.892544 7.65826 2.06067 3.10926 2.63137 3.42663 0.335048 3.75765 5.02894 4.34357 2.06677 1.93175 2.24537 5.7181 2.59981 3.74787 5.91355 0.611236 8.56277 1.34725 9.77625 0.293536 3.47104 6.21166 5.70122 1.28906 6.51087 2.9162 1.55083 7.30254 1.95675 4.52516 0.689233 6.79134 2.36816 0.265877 0.663407 4.85271 2.77661 2.54666 0.505741 7.08113 0.439907 4.44614 0.597705 4.16474 1.06314 4.51893 1.38909 1.1929 1.91673 6.73973 0.546792 4.20541 0.77488 3.2052 0.362204 1.63998 7.79535 5.32976 6.30631 6.20624 0.495388 6.47879 2.68823 1.48868 3.25254 0.548599 3.95908 3.97048 1.4549 0.600149 5.39629 0.554727 7.61916 3.52061 3.73622 4.23061 7.34836 2.96181 4.44614 0.97292 1.89457 2.9498 9.34719 5.93996 2.89362 0.761392 5.09932 0.466289 0.760864 5.79331 2.9142 0.853278 1.91673 2.13472 2.99395 0.989834 0.638288 0.802445 6.16343 1.82214 6.19119 0.922766 5.75541 5.93996 0.747289 0.779236 0.573554 2.50414 0.689168 5.08981 2.63494 6.82376 5.01976 4.80468 0.447824 2.59786 5.63552 0.420135 2.77062 7.65956 0.736685 1.89585 5.09497 1.96821 2.14434 6.45664 5.21663 4.36973 4.15713 0.77488 4.77627 3.68037 2.25353 0.170179 0.331425 6.70945 5.38991 6.71026 0.588463 2.79039 7.07226 3.45143 5.85491 2.03944 3.74755 0.595091 2.01876 1.3541 2.98298 7.98812 1.76809 3.51914 2.60437 1.38502 3.63967 3.43937 3.42663 6.23719 4.77939 1.23621 0.240187 2.14434 2.58357 5.53846 4.67413 5.50806 0.573554 5.68307 2.93444 0.678165 1.04301 2.81267 2.26315 4.31541 1.24367 7.5673 5.38174 1.38284 7.09052 3.65016 2.32568 2.67001 7.86919 0.825577 1.96478 6.64256 6.35143 4.33265 0.556522 7.86959 1.02404 0.44237 7.17427 1.65402 0.640822 0.135198 6.11882 5.20505 0.926095 6.15059 4.3993 1.79378 5.83337 2.0192 6.80159 5.16705 3.6504 2.51916 1.16566 5.84584 1.20636 3.99982 7.32834 2.02227 6.76554 2.54726 1.02404 1.98825 4.87107 0.43588 6.97099 2.543 4.06488 1.43352 1.95223 2.89549 3.08128 6.53277 0.38139 3.38816 7.05374 0.265877 6.55267 0.581388 4.84871 0.743001 3.76483 6.49935 1.99167 2.99212 6.91352 0.458649 1.93175 7.07888 2.09634 0.556522 3.45544 3.60092 0.454359 7.7022 2.61495 4.08872 0.808881 0.59373 0.711687 2.68719 1.38284 5.10095 0.549385 4.92754 3.76483 1.55526 2.93444 0.671714 3.7181 3.12557 5.59588 2.15877 2.35023 0.553809 2.99212 1.52516 1.44544 0.765684 0.888167 1.84221 4.34142 1.92191 5.92825 0.179659 2.39803 2.02782 0.830698 2.18418 2.83057 1.45852 5.15309 6.66884 4.76605 3.88767 1.70991 0.732153 3.41865 6.10736 3.97048 0.607124 3.82507 2.37223 0.593779 2.50511 1.06818 6.39445 4.70066 3.57404 1.74407 3.47104 3.24572 5.02894 4.53016 3.98301 5.96204 2.13472 1.1929 3.35099 5.42207 1.93661 2.511 0.981962 2.21816 3.42219 1.88806 5.97883 0.804347 2.86327 2.38815 6.76682 3.61351 1.2122 4.21216 1.44116 0.812995 0.417572 8.47355 9.82773 0.855327 4.11988 1.67276 5.79399 2.11027 3.12557 2.41152 2.61495 4.29116 2.37223 1.93656 2.33233 6.01067 6.63451 0.888167 2.99539 1.53265 7.48337 1.27856 8.36879 3.112 0.481381 1.83281 4.41674 6.73555 6.82817 1.48915 0.825577 3.86833 0.376107 1.05785 0.394049 7.52591 1.19949 2.01084 0.77417 7.96937 3.61085 2.51181 6.95437 0.300325 4.64963 0.518797 0.892594 2.55416 6.7666 3.20989 3.86195 1.6889 1.01475 3.08128 1.45848 5.53536 5.12698 1.12964 6.16423 2.73484 1.47367 1.54215 9.85632 5.01224 4.6106 2.46492 2.45836 1.13709 0.426854 0.568475 0.738512 6.81359 1.0319 1.68656 2.59786 5.79357 0.830637 4.09354 7.11696 0.475363 0.512957 4.37059 0.802445 0.448116 3.67211 0.480628 6.65205 8.17565 5.15441 0.445411 3.70997 1.03931 1.99097 1.55258 3.8301 3.66651 1.82702 6.24384 0.488357 3.65016 0.581971 2.59981 2.29317 0.361868 2.44936 6.81671 1.37086 2.7592 1.41075 4.25932 1.19681 5.82983 3.46435 1.19129 6.46215 3.247 6.52403 0.356445 0.886983 5.48367 1.2122 0.646144 7.90666 0.432126 3.38816 9.51429 4.06488 0.675159 3.45014 4.84157 0.929816 5.44591 0.546839 4.86056 4.27011 4.09225 3.18055 1.88806 6.60774 2.14471 3.57404 3.75765 0.458649 0.594588 0.478816 7.32509 4.04052 8.32131 1.26856 1.58009 3.88393 6.8661 3.59955 1.34649 2.00745 4.12527 2.96471 5.2171 4.64486 3.51912 6.64256 1.14792 5.71687 2.02227 0.718626 2.51141 2.0192 7.74362 0.797584 0.892544 0.654802 0.801272 6.17816 0.859432 0.936862 0.70406 6.30631 0.868515 3.12451 0.858214 8.39274 5.72719 2.7192 2.38145 1.27881 0.454794 8.15109 0.31226 5.12698 0.504088 4.53016 1.38909 2.56094 3.35099 0.979958 0.504088 5.53536 1.84627 2.01876 1.37342 2.73261 3.98301 0.671714 5.68307 0.779236 4.02038 0.517777 7.90418 2.05351 7.62746 3.01801 2.81188 5.58778 2.56094 4.51893 1.63584 2.59594 5.42207 1.97086 4.16583 1.46807 1.14792 1.96478 1.48915 0.770754 4.08487 1.13709 7.14836 4.08594 2.21798 6.55376 3.34923 1.19681 1.49929 1.95675 0.217358 3.04465 0.971667 7.45787 5.18555 4.3604 1.63998 1.40623 2.04274 4.74343 1.45157 0.124413 7.89012 3.03185 1.89761 7.69214 1.43352 5.44591 4.95312 0.524895 3.79544 4.78972 4.22457 0.567467 1.63779 1.45253 3.11927 1.87772 6.00911 1.32176 8.15109 3.93999 4.06368 3.31088 0.169843 4.50259 1.85684 2.38815 2.46325 7.43589 1.83281 3.03875 4.30357 4.17401 8.2245 4.64451 1.21398 1.07163 4.91892 0.505741 4.50461 0.981962 1.41451 4.24524 5.00703 0.333806 0.77417 1.02982 10.1338 4.85395 0.448116 3.493 3.75624 7.98591 2.83057 2.24257 0.332376 2.98298 1.87906 0.713681 5.40194 0.757601 7.75609 1.07965 2.33233 3.96829 6.11178 4.39814 1.22085 1.10254 4.33938 6.24384 1.87369 3.25428 2.78018 2.56108 2.35704 0.770754 6.82817 2.99395 5.96204 2.73261 10.9085 2.3565 0.979481 0.757601 2.99583 4.4666 0.331425 5.67146 3.77776 1.30274 5.5507 0.619631 0.830637 7.49119 0.594588 6.91352 0.553809 5.02465 5.97883 3.58938 6.23182 0.423854 1.39544 5.5774 2.08596 0.552674 4.77627 4.20541 2.87846 0.97009 6.3614 5.09932 0.485785 0.124413 4.798 3.96911 5.63274 1.45852 5.40194 4.42369 2.00745 3.68474 4.6049 5.59518 0.830698 7.58577 0.378759 0.46887 1.04301 1.04053 2.46108 4.34142 0.942465 1.61696 6.32894 0.350414 1.21398 2.41174 1.62587 0.549027 0.788089 3.19278 0.787094 8.36879 3.47445 2.19141 4.18777 3.22039 0.711687 6.52746 5.13458 2.26045 7.07888 2.06677 0.149959 0.607184 2.96471 0.169324 1.72372 7.07226 7.3687 5.47255 0.760864 3.60182 0.401864 5.64419 0.512957 8.02612 0.281039 6.99485 1.30637 2.1877 2.03944 2.24866 5.16705 0.492296 3.06607 1.13576 5.47255 0.741182 2.25047 8.89545 5.99087 6.17816 4.16941 9.16221 1.57995 5.20505 1.88685 2.89371 5.96703 0.847984 10.1787 1.44544 5.33549 3.46435 1.05933 1.02231 2.44578 2.42245 5.2171 0.607184 8.96416 4.17401 4.30369 5.22258 2.16443 1.49524 3.14226 5.92831 2.05414 1.07099 0.805232 4.19481 1.60636 1.95223 4.78972 2.73877 0.44237 1.57995 0.76662 5.60121 1.39544 0.912315 6.15059 0.254668 4.92474 4.97463 0.474713 2.07126 1.81633 2.16443 1.57108 1.07998 7.04287 1.05856 5.08981 6.75559 4.26089 0.91708 2.33726 0.454359 1.07435 5.29278 4.76456 1.6686 1.2131 4.3883 0.169843 1.01102 7.45787 2.93473 2.27635 4.60093 1.50491 0.380115 1.23621 4.7875 2.03674 2.41569 0.427006 0.980576 10.3428 3.57613 6.55488 0.89498 0.654802 0.335048 3.43937 3.71389 1.24077 9.51429 0.38139 2.00726 7.03694 0.306204 1.96254 0.688149 5.10023 0.573571 3.04465 4.4743 5.07799 1.33733 4.86177 0.200276 0.554727 5.87673 4.75173 2.35058 0.300325 0.390113 2.05564 1.45157 3.24915 3.14226 0.796772 6.8661 3.03001 0.29132 5.01784 2.72865 6.52403 0.788089 10.9741 0.893409 3.6441 7.68484 1.13918 4.70508 4.50461 2.54666 1.59764 2.89371 0.554116 3.43822 1.09654 7.04743 1.63779 6.20854 1.93696 7.10747 1.0136 2.20063 6.19119 7.30344 6.70945 4.4666 0.701804 0.480534 0.401864 8.34976 0.619118 2.0927 2.39038 0.288817 3.86195 0.4994 3.51914 0.706079 2.79456 2.92492 6.73219 3.80271 3.74781 2.70613 2.176 0.241355 7.91641 3.34741 1.79378 4.63709 4.91199 0.546839 2.73931 0.478816 0.120727 4.57159 0.568475 6.45392 8.2541 1.0136 0.689168 5.13292 0.438097 3.77756 1.65529 2.73888 6.75559 1.93629 6.23647 0.501688 2.19141 1.49391 5.90493 1.65402 2.77827 5.68446 0.600149 3.80374 0.478316 1.56302 2.55416 0.288817 2.39803 5.95875 3.79622 2.13158 8.83509 0.673758 9.16221 1.24593 6.35143 2.54726 0.287846 0.892334 1.65514 8.90905 2.176 0.295668 7.08239 1.79722 2.81267 6.32894 4.95995 2.21798 1.15164 2.86327 5.11867 1.19151 1.89761 1.88476 0.847984 1.05389 2.46325 5.58746 1.14501 0.306204 7.23359 0.394049 4.92587 2.73931 3.18055 3.19344 0.694666 1.95838 7.32509 2.89549 5.60121 5.04244 0.597705 2.96181 0.345254 2.68823 1.16815 3.35276 2.16225 2.12379 7.91731 0.748718 5.7801 6.2588 0.794135 1.96821 3.61971 0.518797 7.00167 1.58009 4.42369 0.713681 4.88625 1.96014 0.549311 3.75624 6.73379 7.41475 1.02231 2.36816 1.64581 2.12531 5.17725 6.55267 2.20063 8.2541 1.08792 0.942465 1.84221 6.63451 0.756105 0.922766 0.808881 5.75434 5.13458 1.39682 6.24927 0.332376 1.17847 1.73055 4.23061 0.749451 2.8168 7.98812 2.38151 3.93999 0.454794 3.26387 7.51239 0.979481 6.29096 2.84928 1.1589 2.3555 7.75609 4.64963 2.35058 3.88393 7.00167 4.02038 6.82376 0.96153 3.57613 2.17201 3.12235 5.59557 2.3381 6.39445 1.07015 3.8924 0.689233 1.19151 4.08359 2.15877 1.77178 4.798 7.69214 1.56302 6.37749 2.9142 0.438927 6.7666 0.734025 5.36795 2.96946 4.50259 1.50491 4.68927 2.68719 3.22039 3.96293 3.74787 0.581971 7.09052 1.88476 3.03185 3.98694 2.99539 0.765684 10.1787 0.358042 9.68261 0.943818 3.95498 1.93696 1.82214 3.01691 0.627972 8.54242 0.879193 1.14277 8.47355 2.41234 0.537461 7.49504 3.54253 2.58945 6.14012 2.37104 5.33549 5.92825 1.45234 3.59237 1.19129 3.60182 0.466289 5.63274 0.97004 8.34976 3.42219 1.85684 2.96946 1.65078 6.60774 2.17796 0.953751 1.88368 1.54215 1.1291 5.59557 5.16514 0.640822 5.90493 4.74426 10.8277 5.45541 6.58757 3.06607 2.58 2.04555 3.31797 1.54126 4.88623 1.40623 0.362204 10.5856 5.53674 5.59189 2.04731 5.18555 2.05564 5.96194 7.5673 3.2175 1.14842 1.45059 6.14012 3.5669 5.12803 1.28368 0.825468 6.55376 4.95995 1.61696 1.08792 6.45392 0.426854 4.3993 0.912315 0.423854 3.81061 2.09754 0.953751 1.5775 4.63709 1.60648 5.15309 3.68474 1.34649 2.9364 1.37086 2.44578 7.41475 1.21613 1.15361 5.01784 3.98742 1.93656 4.70066 2.3381 1.1291 1.47367 1.3971 3.96829 4.57159 4.40429 4.88032 2.95058 5.01224 3.74781 3.3204 3.42427 2.51181 4.67519 0.96153 2.63494 1.07435 3.60092 2.77443 6.55488 6.27467 2.62469 2.56108 6.30227 1.79722 5.83889 0.706079 1.76809 2.8168 1.59746 2.89407 1.37267 3.93462 2.06682 2.58384 3.41222 0.734025 5.57189 2.98096 4.64486 2.42245 3.98742 0.29132 2.32839 2.11027 3.30413 0.619118 0.97004 3.96911 1.77178 5.59588 3.35276 3.33116 2.06067 3.21582 1.14438 5.82982 1.89585 4.57745 2.05865 2.13158 1.29613 6.16039 1.62556 7.49119 5.79357 0.447824 3.98208 1.24593 4.16941 0.801272 0.89498 2.77443 3.45544 4.33265 5.71687 1.46807 7.71899 0.287846 6.76554 0.858214 8.88323 2.41174 4.64451 4.70508 0.451592 0.474713 8.80091 0.97292 0.439907 3.92641 5.29995 2.68022 6.51087 3.11136 3.92114 3.6441 0.692252 5.58778 5.5947 3.08292 5.63418 0.627972 1.09357 7.68484 3.92114 1.21286 8.1338 5.9639 4.75173 2.24937 2.77827 2.39038 5.79331 8.02612 0.475363 0.572014 3.01691 0.747289 0.240187 0.380115 1.08894 3.48645 1.97043 0.997195 0.22814 1.01126 1.80577 6.45664 1.93661 2.59594 0.439901 3.41865 2.08642 6.047 2.21816 10.1338 9.25761 0.979958 0.789391 1.99769 2.39142 3.45014 2.73293 0.304008 7.65956 2.68019 7.7022 2.33726 1.42703 4.95172 2.16802 6.68072 1.81717 1.04189 8.70724 1.47054 2.29437 6.00911 0.232021 2.08642 3.82507 3.49124 1.10254 7.23359 7.03694 1.19079 7.52591 4.32625 3.74755 2.1877 1.54343 4.76456 3.52289 2.7192 2.31102 5.65096 5.43032 0.756105 7.48337 3.59815 2.89362 5.75541 3.56236 9.85632 1.88368 2.09754 3.52982 5.35817 0.524895 0.556587 2.24537 4.35771 6.23647 1.08894 10.3428 2.81516 6.27467 1.47495 5.45491 1.07163 0.350414 1.27856 5.33317 2.07126 5.29995 0.762761 5.61064 0.902702 1.98825 7.86959 2.09634 2.68019 0.273211 7.82472 4.24524 1.23828 5.58246 4.52984 3.67887 0.755051 4.64902 3.5024 2.78822 5.59189 0.622254 3.95908 2.56415 4.04052 1.95838 10.1387 0.693057 6.20624 0.70406 0.981014 1.44116 4.4746 0.752529 0.923362 0.692252 0.893409 2.77458 1.25931 4.52802 3.91713 5.03874 4.35771 5.91355 3.96293 4.18777 0.501688 5.1629 2.58384 4.11783 8.56277 1.61504 8.41974 5.58746 4.37468 2.06562 0.254668 0.926095 2.5846 5.02336 4.61526 5.60831 1.07015 1.06818 2.24937 5.87673 5.39629 5.68446 1.54343 1.30637 5.79937 2.03674 6.87627 1.6686 0.548599 9.33713 1.26791 2.49604 8.32131 2.56415 1.05856 1.88559 3.01801 2.1653 1.89457 8.80091 3.1961 5.21663 1.80577 2.04819 9.68261 2.10242 7.34836 1.73055 1.27832 3.41653 3.26387 1.27881 1.20636 3.13835 3.88767 2.35168 2.51141 6.93322 0.936862 9.10916 1.45711 2.16718 0.281039 6.80159 1.79662 3.99982 6.93322 0.718626 4.87107 0.902702 0.709556 9.83649 0.34453 2.41451 0.273211 1.13181 1.09654 5.35321 3.69963 1.14891 0.621047 2.32839 3.03001 3.247 3.61351 0.316383 9.67345 0.926439 1.29613 3.79622 4.38309 2.44936 1.13918 8.1338 2.36847 1.18617 4.8377 3.19278 0.750749 4.92474 2.06562 1.35443 3.98208 4.80468 0.929816 5.06953 2.29317 5.7181 0.556587 4.95312 3.84966 3.31088 4.05781 0.713459 6.97099 3.20989 0.438927 6.16343 4.37059 5.64419 0.4994 4.73377 1.67694 6.52746 0.59373 6.24927 2.73877 3.79544 5.35817 1.93629 7.17427 1.07099 5.72984 1.54126 3.55654 2.08596 1.22998 0.420135 3.62364 0.856988 9.60127 1.42703 0.91708 4.01606 4.13629 3.05241 0.989834 10.9085 1.37342 0.595091 4.32625 5.29278 1.77265 3.8924 5.60831 0.840782 1.64581 6.79134 5.58246 3.4397 3.11927 5.53258 1.21455 6.39317 3.32393 5.50971 0.356445 2.72865 1.15361 1.61504 5.83337 3.34741 1.26856 2.49604 3.99262 2.32592 8.18244 2.72873 4.67413 1.55526 0.743001 0.53862 4.41674 8.2245 1.49524 1.81633 5.33317 3.61219 6.73973 0.853278 6.37749 0.478316 1.48868 7.91731 1.49437 7.90666 2.06572 1.88559 7.04287 1.14005 5.5947 2.81188 0.345254 9.34719 0.474391 2.31102 5.72719 1.32176 3.84966 0.43588 0.875627 1.67276 5.10095 5.38174 0.260356 4.86177 0.590716 8.04812 1.47054 1.22085 6.54469 0.789391 2.77062 0.794135 1.55083 6.09688 1.04053 0.678165 5.96194 2.98866 1.14891 1.49929 4.74426 1.49391 3.47445 1.67694 5.59838 2.43199 8.89545 0.29889 2.63866 1.87369 6.73555 5.12962 5.35321 3.43822 0.385886 5.7801 2.10996 1.19693 0.760411 5.38991 1.72372 1.13576 6.58757 3.14345 0.202458 0.316383 4.25932 4.58152 0.305377 6.81359 1.01102 7.43589 1.05389 1.05933 5.82983 3.34923 2.60437 6.73219 0.676244 0.892594 4.88625 1.87906 2.16225 5.82982 2.97077 3.45143 4.94422 1.00249 10.5856 3.2052 4.15713 7.30344 0.875627 1.33733 5.9639 2.0927 3.30413 5.79399 1.79237 10.6071 0.752529 1.31087 8.65481 5.5507 2.12527 4.47891 4.61954 4.08872 2.41152 1.52516 1.99167 2.26045 5.75434 1.81717 3.10845 3.19344 4.09225 0.160016 7.34467 3.42427 0.880558 0.994214 3.67887 5.53674 0.390113 6.95437 2.05414 4.14818 2.04274 4.88623 5.72984 1.1826 5.2338 1.49289 1.59746 0.749451 3.73622 5.49237 4.52984 5.53258 1.45253 7.04743 1.13181 3.38271 5.12803 5.76593 0.824709 0.741182 7.3687 2.79039 4.37468 4.92587 1.05785 1.22443 3.77776 1.62556 1.35443 0.607124 7.61916 0.200276 0.260356 2.32568 0.488357 4.33938 3.49124 0.427006 2.6047 1.45711 2.04782 4.72857 1.97086 4.8551 2.51916 2.16593 7.13403 7.74362 2.37944 6.23719 2.63137 4.24073 0.495388 0.622254 1.01381 1.02588 5.03874 0.882955 2.8012 2.26315 1.15164 4.08594 2.70613 4.67519 3.61085 0.676244 2.92492 2.59141 0.295668 1.41075 7.06297 6.20598 4.58152 0.423623 4.20284 4.47891 3.07212 9.83649 4.00146 3.52982 3.81061 6.23182 4.91199 1.5775 2.17796 3.83899 4.86056 2.02782 8.83509 2.05865 2.40968 7.58577 3.12451 5.43128 1.62587 8.88323 2.98866 1.45059 5.01591 4.4743 0.217358 7.30254 1.0319 0.305377 6.20598 0.701287 4.19481 7.14074 3.7181 7.90418 0.901402 0.664358 7.19787 0.997195 8.09892 0.29889 2.25047 0.824709 0.745606 8.67685 0.901402 0.517777 2.17201 3.71389 3.63967 5.85976 1.07689 4.88032 1.30733 0.943818 2.04819 1.01126 7.81125 1.3371 0.759995 6.21166 2.68022 0.923362 10.6071 2.58945 1.17816 2.29406 0.745606 5.76593 3.5669 