<VTKFile type="UnstructuredGrid" version="0.1">
<UnstructuredGrid>
<Piece  NumberOfPoints="    2764" NumberOfCells="    2041">
<Points>
<DataArray type="Float64" NumberOfComponents="3" format="ascii">
-32.0215 -24.9505 0 
4.91019 5.72132 0 
26.0141 -3.2193 0 
0.708599 -32.7072 0 
-13.941 25.2638 0 
-34.8421 13.7227 0 
2.51803 49.077 0 
-12.5753 55.5686 0 
-26.8281 34.0696 0 
39.835 -14.0297 0 
-32.9995 6.83558 0 
23.497 -11.9176 0 
-6.63255 20.9431 0 
3.46849 -33.0481 0 
35.7133 13.1994 0 
-54.8988 10.8785 0 
-1.78933 -45.5357 0 
43.1418 4.82836 0 
-16.516 -50.4618 0 
15.6455 -10.7104 0 
28.1667 40.4327 0 
22.8028 26.7416 0 
-26.8358 -22.4464 0 
2.58891 1.16843 0 
-19.3706 37.77 0 
29.0901 -5.0545 0 
5.71448 -52.7183 0 
-14.6504 -28.6546 0 
-29.2709 7.82019 0 
-33.907 -6.89668 0 
38.46 33.7143 0 
-45.2807 31.5825 0 
-25.2768 42.0489 0 
-17.74 32.8685 0 
-6.99124 46.4949 0 
-9.90928 45.5218 0 
-8.06153 18.7254 0 
-4.81483 26.5984 0 
41.7752 -33.8264 0 
-50.9859 8.21331 0 
28.2763 37.4192 0 
-11.4005 -42.44 0 
20.3247 -32.6579 0 
-22.3954 35.3093 0 
-49.4488 -0.897055 0 
34.7164 -11.302 0 
-6.67813 -0.839486 0 
-14.4396 17.738 0 
-31.6328 45.054 0 
31.7928 39.2431 0 
-46.9861 -21.9893 0 
13.2572 39.2477 0 
-12.787 -5.26955 0 
22.1006 -41.6955 0 
-13.292 -13.2172 0 
-22.8298 3.32803 0 
-4.76162 -27.3191 0 
-40.0656 30.6526 0 
52.805 -5.61829 0 
9.21193 27.997 0 
1.53376 -51.8627 0 
-8.5022 -48.7487 0 
26.6732 -25.9706 0 
48.5943 11.2922 0 
-31.8849 17.1664 0 
4.66959 29.7553 0 
47.6312 18.6125 0 
-34.6414 -14.8105 0 
46.1237 -25.74 0 
6.81819 45.0118 0 
8.10429 -2.41636 0 
-28.8097 -21.1886 0 
37.9305 -37.8649 0 
-47.9397 21.3809 0 
52.6443 -8.21739 0 
-24.9829 -9.98657 0 
49.4597 -17.9434 0 
52.4729 -2.19527 0 
13.5709 -24.1447 0 
0.226073 40.6554 0 
-4.83292 51.5476 0 
17.3119 -20.2516 0 
-6.50024 -5.49174 0 
25.4992 35.9778 0 
28.93 14.8514 0 
44.7049 -5.0862 0 
16.3766 49.7268 0 
-0.53753 30.4794 0 
20.6541 42.5061 0 
-22.0087 31.5159 0 
35.1228 35.5456 0 
-15.7305 -15.5372 0 
13.4912 17.5092 0 
-36.2823 -19.3145 0 
-50.8488 -9.55745 0 
20.4944 -37.7515 0 
15.9486 -1.19684 0 
50.0214 -12.8943 0 
-17.309 51.8323 0 
6.93024 -19.5477 0 
-13.3996 -42.8335 0 
-27.7381 11.792 0 
26.8895 7.51589 0 
-35.0732 3.35048 0 
33.9454 -10.7001 0 
24.3991 46.6533 0 
-33.6246 -2.7727 0 
51.5436 7.42803 0 
-41.4412 17.5272 0 
-42.4168 -28.6764 0 
42.3583 11.4046 0 
-9.62277 7.01415 0 
-11.3335 -51.8098 0 
-49.3465 4.64582 0 
-11.7999 50.2153 0 
41.1876 3.03641 0 
-21.2146 -48.0852 0 
20.5744 -46.4646 0 
26.7214 -29.4706 0 
21.5886 -2.73651 0 
17.1041 44.3525 0 
-14.2057 44.0339 0 
-2.83143 45.4386 0 
22.3251 38.0698 0 
-17.6009 43.5014 0 
-22.6402 25.9519 0 
5.69478 -46.2079 0 
24.6074 -22.3895 0 
17.0885 30.8071 0 
45.2554 -0.0510614 0 
4.83092 39.15 0 
-12.1366 -1.71883 0 
-24.2654 -18.6368 0 
-7.13339 -9.42071 0 
37.1972 21.9912 0 
44.3662 -31.6289 0 
18.6287 -2.64305 0 
45.1078 21.5822 0 
40.6966 30.3693 0 
-16.0847 -44.1096 0 
-43.5474 -18.4458 0 
12.0669 40.1108 0 
6.88568 -52.4038 0 
-2.90671 8.30117 0 
27.6797 25.1659 0 
2.0177 17.6047 0 
-21.1841 -42.4532 0 
43.2132 24.9942 0 
23.0864 12.0824 0 
6.97265 23.1941 0 
-36.68 12.8563 0 
-35.8976 32.6104 0 
34.6946 18.2315 0 
25.8472 -35.9261 0 
0.891679 40.2229 0 
36.2806 30.8892 0 
5.30159 11.4929 0 
11.1678 6.7237 0 
37.5389 -29.8818 0 
-2.01402 -39.601 0 
-45.5395 3.25826 0 
-7.83976 -8.17388 0 
26.9126 33.1958 0 
-25.1892 20.7798 0 
-30.5499 -17.7639 0 
-46.9624 15.2562 0 
50.9456 -20.5559 0 
-40.2125 -21.4885 0 
-26.5516 41.4223 0 
-9.63725 -14.3267 0 
30.1262 12.1144 0 
-6.67489 -53.9292 0 
-19.9318 8.44696 0 
28.7087 8.07299 0 
8.76212 40.8901 0 
52.2148 -8.75873 0 
-7.52056 14.7664 0 
-39.3758 -24.236 0 
13.4088 16.5717 0 
7.8338 -4.29814 0 
11.2379 -50.8821 0 
-43.3431 24.5235 0 
-25.4857 12.525 0 
-2.09803 -27.6769 0 
-24.2218 27.3749 0 
25.4628 -15.0812 0 
27.537 -22.3392 0 
5.68712 16.1898 0 
-19.3715 26.8732 0 
-14.7942 -7.03828 0 
-41.1417 37.9183 0 
24.6061 42.6318 0 
40.7756 -20.5463 0 
-11.8227 -38.1939 0 
31.1499 21.32 0 
-45.2099 -0.449602 0 
23.5315 19.3476 0 
-10.6798 6.68798 0 
29.5151 -10.584 0 
52.5897 2.13524 0 
46.1426 16.31 0 
3.00023 52.0466 0 
-1.173 -53.7242 0 
-12.2622 25.5874 0 
30.9479 42.6845 0 
-13.8847 55.1233 0 
-45.5552 -25.4649 0 
34.1594 -32.2825 0 
-1.18185 -3.31735 0 
40.0492 -26.6248 0 
11.5482 -31.2818 0 
-1.94221 -54.6527 0 
26.0309 19.569 0 
-0.476219 25.9478 0 
-16.4629 38.6058 0 
-12.0811 -24.9889 0 
32.6048 -18.4842 0 
39.0323 20.7376 0 
9.07241 34.4003 0 
41.2144 -8.37978 0 
-8.82867 10.9968 0 
-13.9814 1.93145 0 
19.9588 -26.3053 0 
-18.3728 46.8084 0 
7.24269 14.5958 0 
-44.3852 -7.71708 0 
-35.5959 -30.0953 0 
-2.45451 28.3334 0 
24.0656 -17.7846 0 
21.7512 -23.6171 0 
-29.2751 -13.1131 0 
-43.5206 -29.8661 0 
-35.2177 1.39813 0 
-18.693 40.7387 0 
1.70102 46.1327 0 
-50.3528 -14.1405 0 
-26.2132 -5.73366 0 
27.7685 -45.2099 0 
-13.4166 6.04297 0 
10.6267 46.2474 0 
15.8786 -30.1718 0 
-4.60687 -34.9175 0 
-16.219 28.0823 0 
-21.2003 -0.965737 0 
11.8973 -6.27892 0 
2.81249 45.7147 0 
1.62742 7.85602 0 
-2.22311 -11.6186 0 
-39.2468 24.3655 0 
38.4297 3.12848 0 
-35.8794 -38.4113 0 
42.2274 -32.4478 0 
-20.7309 44.1092 0 
43.1556 9.34948 0 
3.66071 -10.7841 0 
20.85 -20.4058 0 
30.9314 -42.6318 0 
5.73573 -17.5134 0 
14.7862 -1.92601 0 
-31.0319 -37.6908 0 
-36.9227 33.3851 0 
18.6859 -39.5708 0 
-14.3439 8.57403 0 
23.2418 -18.3311 0 
7.36808 -37.8398 0 
48.4628 -22.7386 0 
-39.9099 4.58062 0 
0.779501 23.0346 0 
-28.667 37.531 0 
27.9041 17.6395 0 
49.9651 -22.2443 0 
17.7305 25.2218 0 
-18.9477 49.5297 0 
-33.6863 -23.6345 0 
5.97273 35.5773 0 
10.9582 -36.7437 0 
-9.54361 39.1757 0 
-13.3338 10.615 0 
27.9043 45.0212 0 
-45.7533 12.2185 0 
43.3849 -5.75957 0 
8.67856 49.9697 0 
-37.6914 -18.8611 0 
20.1881 17.4234 0 
14.5975 -40.5717 0 
50.2135 0.16913 0 
48.7554 -4.04399 0 
13.575 -34.095 0 
-51.4628 -6.71704 0 
21.3395 3.1288 0 
46.2656 -18.767 0 
-40.4037 -1.8051 0 
-1.91834 8.91854 0 
-28.388 -13.1159 0 
35.0541 11.1223 0 
22.35 -4.81701 0 
17.1047 37.8555 0 
-1.89469 14.0548 0 
-31.5146 -9.87731 0 
-2.52198 -15.2535 0 
34.383 -1.61135 0 
45.9169 -11.1644 0 
29.1273 -6.5656 0 
-2.99535 23.7604 0 
2.25138 22.2293 0 
-36.4105 28.3492 0 
-49.767 16.5352 0 
-32.088 24.999 0 
18.0685 11.4195 0 
11.222 13.247 0 
-43.7318 9.82975 0 
42.0616 15.998 0 
-36.6092 -31.5432 0 
39.0008 40.0623 0 
-38.1499 6.93418 0 
37.9617 -6.43656 0 
4.7705 -40.0621 0 
-10.8063 33.1622 0 
-41.2819 -9.95771 0 
30.4977 -27.6834 0 
-30.6906 -32.7298 0 
-8.0183 40.2139 0 
-35.2857 21.1768 0 
-44.191 13.4914 0 
35.3078 33.1446 0 
43.9781 -28.3117 0 
-53.1628 15.3014 0 
-28.7262 -29.8989 0 
38.498 -19.551 0 
-29.0983 41.5723 0 
8.67568 -4.99697 0 
-37.2345 -26.9665 0 
11.3524 -47.4716 0 
30.6061 4.13912 0 
-45.7333 26.086 0 
-12.9731 44.8288 0 
33.1412 -29.8781 0 
-22.8508 14.1283 0 
42.5084 27.0036 0 
17.5545 -27.975 0 
17.7811 -45.2185 0 
-30.3389 30.1657 0 
11.0617 -19.2409 0 
-49.5985 13.6598 0 
-25.2874 -24.389 0 
-8.84578 26.8086 0 
-30.0946 45.711 0 
-26.5011 -3.16269 0 
-5.73699 2.77195 0 
-9.32047 -24.4298 0 
48.6274 7.69698 0 
-6.48546 -16.5331 0 
40.6169 -22.3037 0 
-24.3308 -30.8902 0 
-30.1357 23.5242 0 
-10.195 16.9169 0 
-20.284 11.171 0 
35.4816 25.1198 0 
-3.34766 52.3386 0 
-17.6599 21.1948 0 
12.3014 -41.8226 0 
-42.7028 27.3757 0 
-48.7284 -6.40466 0 
-27.4342 25.7947 0 
-17.9492 -20.8939 0 
36.8943 42.3664 0 
-8.86817 55.0858 0 
21.7669 13.3565 0 
24.2246 8.66172 0 
-0.0906059 -0.658241 0 
43.1586 -17.4788 0 
-9.19348 -23.3537 0 
-29.1118 -0.227867 0 
10.0622 25.5463 0 
1.7461 -9.05865 0 
-14.0081 -45.611 0 
15.4094 -17.3499 0 
0.187156 -16.8111 0 
-5.97103 5.08761 0 
-19.0004 -34.8404 0 
-28.459 3.8516 0 
-41.4092 -32.8546 0 
45.8998 -7.44164 0 
31.4273 -36.0558 0 
22.1929 47.0708 0 
-4.80698 -44.1474 0 
29.3365 30.3128 0 
-20.1986 -38.4251 0 
-4.23474 15.6689 0 
18.8711 34.3103 0 
14.4848 -46.221 0 
-4.32976 -54.4195 0 
8.81985 -30.8434 0 
48.8854 3.79983 0 
33.8018 -22.4327 0 
-17.7891 0.709242 0 
-22.798 -11.3809 0 
33.8058 28.2293 0 
-39.1849 -6.74336 0 
-2.17745 34.7386 0 
35.0007 -40.1148 0 
-40.2911 23.0785 0 
20.7484 -9.28237 0 
-50.8056 6.56705 0 
-49.0031 -18.1467 0 
-22.5458 0.0735532 0 
-7.98604 -32.7706 0 
4.42461 51.4103 0 
19.307 -49.1338 0 
5.24925 10.7459 0 
3.48501 29.7513 0 
-37.9053 16.9391 0 
13.2301 8.7873 0 
-39.0159 -31.8596 0 
-16.2989 -23.3575 0 
-4.80072 -49.1608 0 
-38.7287 -35.3543 0 
-47.0294 6.83168 0 
28.8617 -42.2484 0 
16.7231 -14.7875 0 
14.6378 23.4491 0 
30.6903 22.2685 0 
-19.1499 -15.6403 0 
-7.4297 50.5819 0 
-43.414 36.1889 0 
-25.5642 45.9779 0 
-31.7564 28.7848 0 
11.889 31.3934 0 
-17.3519 14.3926 0 
3.75435 7.55551 0 
8.33359 -13.6043 0 
23.6058 -32.1578 0 
-20.4793 7.19555 0 
25.291 24.7234 0 
-9.48832 -1.22568 0 
26.7274 -39.9997 0 
-19.441 -18.2936 0 
30.7553 -28.623 0 
-9.88046 14.8922 0 
-7.81629 35.2223 0 
-13.4694 31.9876 0 
34.5766 -13.7591 0 
12.3942 -24.3958 0 
-1.54094 -49.0244 0 
-34.9001 37.444 0 
1.04529 -47.075 0 
-45.106 -13.4633 0 
-44.1197 35.3935 0 
-35.7539 -9.73419 0 
1.18939 -40.2671 0 
-5.11613 -37.5821 0 
2.11699 -54.0948 0 
39.5192 -31.8457 0 
-45.6544 -9.72554 0 
-5.83831 -21.1549 0 
8.26514 -42.8175 0 
52.7206 -14.5219 0 
-37.4599 11.0609 0 
-4.25769 41.4897 0 
9.20113 4.37346 0 
-21.0987 17.9268 0 
-25.3627 -44.9046 0 
16.9377 19.2988 0 
22.9211 33.4356 0 
4.35275 36.6355 0 
5.2268 -11.4009 0 
-16.2412 21.8165 0 
28.138 -38.2753 0 
7.90704 -26.9813 0 
16.9143 -32.4178 0 
-23.6119 -26.4489 0 
3.11443 -23.7384 0 
-18.2127 -26.7282 0 
-14.9658 39.5037 0 
34.2782 -39.1324 0 
-51.6464 -0.372244 0 
0.549931 -9.74529 0 
17.3285 -11.8972 0 
-1.21083 31.5597 0 
8.46427 -47.115 0 
50.5833 9.79752 0 
-15.2586 -35.8904 0 
-16.1009 49.3504 0 
-4.76235 -2.90067 0 
13.8126 45.0672 0 
-37.7585 39.2043 0 
-43.2809 6.07694 0 
13.825 50.9538 0 
2.30026 -6.43017 0 
7.72765 52.1877 0 
9.72189 0.672684 0 
-44.662 -1.87473 0 
-2.25932 15.3643 0 
15.4849 7.92994 0 
[...]
<CellData Scalars="wall variable 0">
<DataArray type="Float64" Name="wall length" format="ascii">
2.53168 1.82126 2.74666 2.48677 5.93126 0.920047 2.48826 3.03991 3.08894 4.75574 5.13934 2.49552 2.82636 3.70741 3.1534 5.87305 2.16202 0.877999 3.7032 3.50165 3.27421 3.41157 1.03101 4.8891 1.44095 3.53903 1.41004 1.92742 3.56729 4.08096 0.787487 4.37068 4.65041 4.08096 3.23886 2.82755 1.70715 1.45329 4.16282 3.78268 2.324 0.567511 1.10671 2.88282 3.00127 2.99762 1.26612 2.93148 4.02368 4.54101 4.17196 5.72421 3.28007 3.61574 3.61343 1.78813 6.88807 1.4528 0.709157 4.64228 4.11293 0.560373 6.43742 4.63851 7.22577 2.88186 4.11193 4.05209 4.47198 0.69928 2.64141 3.02227 4.59383 0.787308 4.8837 2.04065 4.07837 1.92737 2.95609 1.19001 2.29321 4.01254 3.0989 2.8184 7.97163 4.26421 1.94402 3.06292 3.1534 2.18945 2.2347 3.72007 6.36983 3.48098 0.791609 4.17514 3.83637 2.4435 2.3469 3.45643 6.4046 3.46098 3.00172 3.19326 2.34865 1.34553 2.98372 3.52027 3.76088 4.34778 2.83178 1.41646 5.38333 1.52394 2.95116 2.80201 3.91918 3.47784 1.72062 8.11492 3.58799 4.30372 3.57153 6.57116 1.8029 1.65009 3.36922 4.26246 4.21547 4.8891 4.44881 3.54327 4.17621 2.04608 1.48502 2.46367 6.42884 1.15782 9.79976 1.5098 1.66975 10.8178 4.31779 2.5617 2.598 3.43619 0.381854 5.316 1.27 0.388591 4.04395 3.08289 3.98841 8.37872 1.95936 5.29448 3.85735 2.34134 4.98796 4.50341 4.13405 3.00172 3.00384 3.15464 3.1473 5.48788 6.48882 2.16275 3.37631 3.07114 0.920047 3.22943 2.26704 2.72363 0.758704 0.289269 4.75574 2.95254 6.45007 3.64519 3.8981 2.97122 7.16791 3.3197 1.93429 3.39202 4.11393 1.19782 7.16791 4.5764 3.24439 1.86249 3.13205 0.665572 1.62103 3.06933 3.04022 0.515794 4.63851 4.18324 2.20809 4.58523 5.28351 2.00714 2.93795 0.346648 2.97393 2.49693 1.71908 7.07299 2.76155 3.97974 3.45903 2.14243 3.24642 2.78549 4.67651 4.26147 0.523051 5.11157 0.141762 1.27595 4.13581 1.93193 5.08481 0.109945 2.03778 4.17514 5.65698 6.5164 1.0408 6.94735 2.7653 3.71589 3.84199 6.42884 3.79873 3.76512 3.17689 3.47784 0.821601 0.738459 6.8376 0.77778 1.47726 2.41698 0.350613 3.1567 3.61343 3.26318 4.18324 4.11193 4.38661 3.29672 3.31068 8.54452 2.80011 2.75679 5.61152 3.66021 1.93161 0.758704 4.4894 3.59311 2.36606 0.394714 6.69479 0.536119 2.28291 4.03365 1.87594 2.34223 7.6312 3.41355 3.37347 2.60001 3.58799 0.609855 5.48788 3.64572 3.54327 0.821601 3.91918 5.47397 1.93429 3.43865 2.2004 2.08554 4.31676 3.90117 1.87711 3.35701 3.5097 4.54657 2.11325 3.08593 5.65215 3.20966 3.91092 1.14009 3.11609 4.07837 3.44937 0.882309 8.93604 1.68453 5.91696 0.69928 3.82315 1.46568 4.51284 5.31307 4.13581 4.95927 2.0881 2.43014 2.45725 4.10553 2.3469 2.33792 1.62515 5.28545 1.78698 1.28446 1.57344 4.95777 2.93559 1.73506 3.98841 4.77073 3.4959 3.32079 3.41355 3.37631 1.82133 3.94061 2.66205 6.81461 3.13205 1.85598 4.04846 0.353617 5.59883 2.4086 3.01457 3.93709 0.70134 4.61337 1.64371 4.64333 6.39958 3.0635 1.64371 0.952219 3.05372 4.57089 2.57791 2.64023 4.57089 3.21492 2.74666 8.04171 2.77935 1.1809 4.14114 3.21675 3.4959 2.90595 4.89139 1.62103 7.59045 3.28098 2.61421 2.69957 4.89447 3.09745 3.08593 2.17967 3.70064 3.48251 3.86776 1.59853 4.84373 3.44931 2.22999 4.58204 0.742987 3.12197 3.53451 3.62053 0.696246 6.95079 2.56676 3.11166 2.98978 3.28229 2.45102 3.0989 2.66357 8.55695 1.5304 3.56561 3.33591 0.731848 3.06933 4.89447 2.74215 8.43556 0.829779 2.74267 2.9073 3.34763 2.75101 10.9879 3.24387 3.11439 3.01365 2.27926 6.30785 1.26599 0.840335 2.50928 3.6442 4.70291 1.42246 8.94648 3.42739 3.05787 3.85006 4.76606 2.23789 2.35266 3.19776 3.37604 3.06106 2.76368 2.8195 2.67443 1.49398 4.2196 3.02873 1.78698 1.57332 2.93266 2.91585 2.59488 3.19611 4.79798 1.32658 2.64355 8.54847 1.18462 2.11179 7.75479 0.999941 1.62275 4.32225 4.19206 1.79862 2.93266 1.40579 4.11815 2.00693 7.46453 0.358966 7.64847 0.567511 2.92699 3.01457 2.98571 1.12601 2.82755 1.28438 3.53309 3.62208 8.73336 0.523051 7.41988 0.350613 5.01295 2.59837 2.61554 6.60739 2.87846 2.74021 1.18173 6.15911 3.67596 2.15819 4.58204 0.589955 1.7111 4.58609 0.930683 1.19195 7.87598 3.91844 2.33526 1.12688 5.02731 3.95275 4.21502 4.1121 3.10648 5.33993 0.930683 3.99179 8.54847 2.64417 3.64847 4.02491 3.58961 2.2784 4.70659 2.98614 4.97137 3.72007 4.54156 1.46692 4.64333 3.0635 3.21608 3.94061 2.85307 4.54156 1.85598 1.86249 7.53687 3.11166 3.46098 0.388418 3.89924 5.29448 4.75947 1.81839 1.09318 7.19586 1.88709 2.55717 6.26405 4.14889 3.46951 1.51905 6.01141 2.43014 4.79928 4.83485 2.35266 8.39608 3.54077 2.83934 1.03617 3.52117 3.58723 3.8981 3.93403 2.83178 7.75479 2.26673 1.34564 3.40562 3.57131 2.59352 2.55398 2.91585 1.79862 3.47024 3.22923 0.358966 2.31318 2.53168 6.32 7.92639 2.21891 2.90595 4.77073 2.98093 2.85311 4.85613 1.39546 5.58019 3.41618 5.316 3.82184 2.40048 1.52394 2.89655 5.94137 5.87305 3.06292 2.33792 2.4435 1.81839 2.1081 2.96233 2.34549 4.14114 4.89062 4.08797 2.14243 5.08725 1.31422 1.43242 2.1136 0.881807 0.402149 3.62208 2.63266 6.03929 0.371866 2.90861 2.55933 1.76738 3.22487 3.22487 2.76368 2.93148 4.96736 2.97122 3.58723 4.1642 2.80192 3.37347 3.32079 3.21675 1.31422 3.95251 2.83645 3.31134 3.15464 3.33325 1.5098 0.387607 4.95805 3.12394 7.89734 2.98571 2.4086 2.41334 1.40603 1.71908 2.64417 2.64355 3.99459 4.00115 3.61887 3.30718 3.39752 4.4289 3.1473 3.31134 1.18462 3.99179 0.552319 2.89655 1.94402 2.89188 1.93161 4.12624 1.76716 2.68215 2.27151 4.51493 4.35617 2.96424 2.5802 2.56684 2.94645 4.70659 3.60035 0.388591 3.4716 3.73217 3.69513 2.1081 4.75947 1.95936 2.33213 2.55077 0.987921 0.319584 2.55817 2.7653 1.75535 1.91448 3.04926 5.59661 4.19206 0.631577 5.65698 0.791609 4.35557 3.2856 2.01733 3.61574 3.58386 3.40562 2.94017 6.81802 1.74778 0.738459 3.12533 3.12394 2.49693 4.23585 3.26848 1.46412 3.16337 3.03777 2.85153 6.33045 1.28446 3.08289 1.19001 2.91189 3.21845 2.70739 2.45725 6.01141 2.27549 2.85523 7.06561 1.62334 3.24642 4.08797 9.79976 2.40412 3.64847 3.61887 3.50693 0.387607 2.21355 2.2061 3.95251 5.08725 3.45903 0.717052 2.77153 0.983616 4.45412 4.07938 2.77153 8.07273 1.54874 9.88903 0.938854 4.26246 1.70604 4.54192 3.62036 4.64228 5.08872 3.90014 2.13382 2.69455 3.27104 4.71499 3.50183 3.68291 0.452347 3.16324 2.74021 3.13805 0.353617 3.82156 1.03758 2.72099 2.68488 5.36624 6.24022 3.73217 3.66792 3.87655 3.64124 3.43865 5.31336 6.38965 3.26385 2.90861 3.06106 1.27046 5.49197 0.642504 4.19287 4.50341 4.4289 1.52554 1.72727 5.596 5.63393 4.23379 2.83645 2.2061 5.50049 3.52041 7.89734 3.12533 3.49032 2.59488 2.55398 1.12601 3.60589 3.21845 4.74396 5.02976 2.00714 1.32342 5.25227 3.12975 5.02731 4.03877 3.98333 3.40982 6.45007 0.0763286 4.7324 4.36959 2.34865 4.07812 4.06065 3.42739 4.89641 2.45659 0.983616 3.32698 4.34231 0.632227 7.52278 3.21711 6.24575 2.01474 2.50928 2.41451 3.9146 1.87594 0.527669 7.47891 0.876193 2.26673 2.11179 2.01733 4.58236 0.987921 7.71347 2.51123 3.28229 1.99294 3.66792 4.35557 3.48098 3.08644 0.341047 3.02589 4.45412 2.45659 2.0633 4.63305 3.59287 3.37011 3.24821 3.39641 3.44467 2.00869 4.34778 4.99747 1.03758 3.94919 2.83934 9.83016 1.52554 3.39752 2.91974 3.99459 1.32658 3.09142 3.50165 0.471958 2.75101 3.17274 5.1938 0.291255 2.26851 3.55083 0.394714 3.21499 3.31597 1.70604 3.36922 2.2399 3.08526 1.14009 3.91935 0.868403 2.78556 3.03991 2.78445 4.30916 2.57408 1.44307 2.12549 3.10017 0.346181 4.51284 2.78911 2.67532 2.97479 5.49248 0.554846 4.71499 4.30899 5.95116 3.09637 2.56422 1.68615 3.71589 2.55817 2.07184 2.72468 2.8184 2.45102 2.51123 2.40977 3.12197 2.9797 0.431437 4.39047 3.41157 3.79231 1.8029 3.91525 0.431437 1.54185 1.60223 5.08872 0.709157 5.06336 3.86589 1.19195 2.52793 1.09318 3.61939 2.60876 3.20182 1.44095 4.21547 0.938854 2.91202 2.47754 2.18945 3.70741 0.291255 2.64534 2.47754 4.89641 3.37604 3.05981 2.34223 3.9146 4.76789 3.59311 1.45712 6.87384 2.59837 2.36879 3.07154 1.94276 1.44307 3.5242 2.90877 0.625602 3.57153 0.170913 5.82114 2.29321 2.27549 1.51905 6.8752 0.952219 4.61337 0.513427 2.04608 2.54539 2.66205 3.21608 2.64023 7.64525 1.59068 2.88517 5.24854 2.55933 3.26385 3.16272 2.598 0.491084 8.5346 0.452347 6.30674 1.11953 1.59853 2.15819 2.1136 4.9495 1.57977 3.52027 2.04527 1.42246 5.14798 3.46951 2.47667 2.48677 3.21492 3.05372 6.8752 0.880863 4.73845 3.43619 3.16272 5.49197 2.78549 1.62334 4.25979 3.77497 4.595 1.77731 1.43242 6.09912 0.486045 5.00543 4.9495 3.59775 4.95978 3.06098 3.61939 6.26405 0.964264 3.37011 2.80484 6.60739 0.909529 2.2004 3.64124 0.616192 3.62458 3.5242 2.57408 1.78763 5.9901 2.13382 4.27822 1.41646 3.93403 3.64519 3.40982 2.55451 5.59542 3.93709 2.92699 2.324 3.65666 3.44937 2.04065 1.98381 2.76155 2.7578 2.67443 3.31152 5.65215 3.09745 3.8433 2.84111 2.73708 2.98093 1.82133 2.16275 2.02604 1.41004 4.70484 3.49032 3.16337 3.45482 3.45643 4.10553 3.02873 6.60605 7.03229 1.62824 3.44303 4.97137 2.86625 8.54452 2.89188 4.26421 1.78763 2.67532 3.90866 1.14041 2.34134 0.461115 6.96478 2.94645 3.20445 3.64749 3.60229 2.80011 2.86625 2.98614 2.2784 4.92526 0.325138 2.91609 3.03777 4.04395 3.60035 0.642637 7.35852 0.589955 2.22999 3.47907 3.76512 8.34421 0.881807 5.14798 4.70291 2.9554 2.47707 3.04022 0.731848 3.86368 4.34231 1.31493 3.31612 4.36959 4.76789 2.41451 0.840335 7.53302 1.34553 8.04171 1.82126 2.31318 1.38319 1.62824 2.37245 1.92742 2.72941 0.999941 2.59352 3.98585 2.42805 0.948092 3.04607 6.26485 5.54598 4.07812 3.19326 4.13405 4.19287 3.65666 3.78268 4.1642 3.52117 5.38291 0.70134 1.00359 3.87655 1.99294 2.98978 7.53687 3.24439 3.31152 2.8195 3.22487 5.73757 0.15481 0.882309 1.03617 3.94919 3.82156 4.04846 5.38291 4.31676 3.36251 3.08908 3.10648 1.97247 5.21777 0.584366 2.91609 6.12305 3.07154 0.287647 2.59123 2.85153 0.522291 1.97247 4.1121 1.41959 3.04926 2.00861 6.91464 3.61835 2.88282 5.62389 4.27556 3.89688 3.15932 7.59045 2.20809 3.26318 3.63161 3.50608 4.17621 3.64572 3.3197 0.665572 6.81461 2.54539 2.47754 2.99847 3.31597 1.60288 7.02306 7.45759 3.50559 2.7179 4.02368 0.582402 2.68215 1.75117 3.98336 0.424363 2.74215 2.69957 2.25543 4.18197 5.54598 0.642504 2.22609 2.94329 3.05787 4.06065 2.76423 6.11035 1.48502 1.59068 2.51163 3.11587 2.77935 2.72941 4.65041 0.522412 3.11587 4.7606 2.27926 0.761139 7.13458 3.00127 3.61835 2.28655 3.68291 2.78736 0.761139 3.01365 3.1727 6.30674 2.73708 6.08564 2.60876 3.06098 4.51665 4.5192 2.57747 2.85311 2.2394 1.93193 5.31307 2.70739 3.60589 4.14386 3.10017 4.60862 3.53827 0.341047 7.55014 1.54185 3.91525 6.57116 0.625602 8.78963 1.12003 2.33213 4.98796 1.14041 1.64213 6.21126 3.66989 1.5304 2.34964 2.96424 0.502871 5.54035 0.77778 2.0617 9.01741 1.99568 0.461115 3.85735 3.89924 3.59287 3.5587 4.30899 3.27104 2.87846 2.80484 0.584366 10.2536 0.536119 1.05371 4.79928 3.25925 3.90117 2.6528 2.78445 2.82636 3.18021 3.17274 3.34763 2.02188 2.58308 4.30916 2.6528 2.9073 6.02688 4.04696 2.5802 4.01634 0.536451 7.36049 2.21891 6.21115 5.65008 2.60352 0.695521 2.85523 4.89062 4.89139 2.56684 4.04696 1.26343 3.97912 3.20445 6.60605 3.36295 2.02188 0.697664 2.63266 3.53309 0.733457 4.54211 4.48 4.85613 2.57747 3.41145 3.53451 2.40977 7.71347 2.55077 1.12003 2.4232 3.98585 3.57131 3.58386 3.28007 0.909574 2.78911 1.46568 2.8362 0.696246 4.91754 1.64213 3.90866 3.91092 1.09894 4.51493 5.35235 4.70681 1.19782 1.67834 2.96233 3.69513 6.24022 1.00359 4.5764 3.67596 5.33993 3.08908 4.32521 4.39998 0.491084 7.97163 2.72468 1.23105 4.74396 2.91189 1.62464 5.36624 1.83085 0.880863 1.27046 4.2196 4.76463 0.141762 2.92595 1.45712 4.4894 2.72363 8.37842 3.00008 3.28098 3.15932 2.77027 5.71184 6.32 2.48826 3.07114 3.08894 2.78556 0.70189 2.60001 2.80192 4.23379 1.52412 0.170913 4.30372 1.0408 2.46949 1.45329 2.57511 6.99968 3.81319 4.23851 3.24387 2.3872 1.72062 3.17689 3.47907 3.44931 2.07184 6.69233 2.93795 5.02976 1.23105 6.81802 5.04992 0.756638 3.33591 2.4147 2.66357 0.756638 3.21842 4.18197 6.96536 0.495585 4.11815 2.60474 1.47722 3.39202 5.47397 2.80201 1.03647 3.02227 3.27242 4.79644 0.943631 5.9248 3.58002 3.26848 2.16805 0.787308 5.04293 0.560373 1.36574 4.14889 2.0881 3.59717 3.22943 5.93126 2.47667 3.97661 3.31612 4.23753 4.67651 1.77731 1.1809 4.7606 2.51163 7.64525 2.57791 2.0267 8.18172 0.287647 2.36879 5.01295 2.41698 3.20966 2.84111 2.37555 0.536451 2.88871 2.93559 2.46332 0.502871 4.35617 1.09894 1.66975 3.33325 3.00384 3.76088 1.57977 5.00543 0.612074 1.56008 3.04607 3.55297 4.14386 1.32342 5.28351 3.94935 4.76463 1.49398 2.7578 7.07299 1.40603 2.60474 1.40579 1.57332 5.28545 6.72741 2.41334 5.59883 3.13805 1.62464 3.94935 3.02589 3.53827 0.391695 5.50049 2.21355 4.07938 1.2258 2.00861 1.91448 4.05633 1.4625 6.24575 2.64534 5.1938 3.18021 2.49552 2.3872 2.26851 2.99847 5.11157 2.61554 6.87384 2.92595 1.54874 2.9989 5.73757 3.22487 1.20046 3.91844 2.09634 3.58961 2.2347 2.47754 7.02306 1.68615 4.92526 3.50183 0.554846 2.95676 2.99762 7.13458 2.78736 2.56422 2.75646 2.76423 0.522412 4.37068 4.85462 4.00115 2.91974 3.30718 4.95805 3.50693 2.26967 3.03147 6.30785 2.28655 3.89688 0.642637 3.79873 2.46367 6.11035 2.75646 3.09637 0.922034 6.4046 3.45482 1.46412 3.58002 1.98697 2.0617 0.388418 3.47024 7.46453 1.43803 2.26967 4.27556 1.02689 0.909529 6.15911 2.02436 4.32521 3.36251 2.08554 1.60223 8.78963 2.90877 3.62458 3.90014 0.909574 6.88807 4.082 4.63842 2.42805 4.38133 6.91464 1.2258 3.21711 4.03365 0.461963 4.66903 5.35235 2.27151 0.582402 5.72421 1.61924 6.95079 2.8362 3.82315 4.47198 1.44586 5.06336 1.4528 2.93126 1.92737 3.11609 3.08526 5.21777 0.522291 4.38133 2.28291 10.2536 1.62275 6.26485 1.56008 4.58523 2.03544 0.943631 2.33568 2.22441 5.59661 1.41959 4.21502 4.58609 1.63699 5.08481 2.2394 3.55297 0.948092 4.63842 0.379376 0.0763286 2.95254 4.96736 1.26612 2.95676 5.49248 1.27595 8.37842 2.26704 3.59717 4.95927 2.12549 5.82114 1.52412 3.52041 0.391695 4.60862 1.31989 10.8178 0.612074 0.486045 4.37473 5.28579 0.877999 0.352445 6.96536 2.25543 2.61421 3.00008 1.07557 3.50559 0.616192 6.38965 0.587856 2.93347 5.51283 3.24821 0.346181 7.55014 3.08644 6.36983 0.52575 1.68453 0.226254 6.5164 0.631577 4.32225 2.33568 4.79644 7.53302 8.94648 2.04527 2.98372 2.09634 7.87598 2.91202 9.88903 3.91935 8.93604 0.15481 2.9989 4.54192 1.3272 6.99968 0.539795 2.9554 3.6442 2.01474 1.4625 0.52575 3.83637 2.03778 0.226254 3.27242 2.64141 5.91696 4.69581 3.98336 3.25104 7.47891 1.07557 5.71184 1.41677 3.11454 4.54101 2.7179 3.32698 8.07273 0.717052 4.26147 4.23753 1.31493 0.787487 4.16282 2.46949 3.84199 1.68615 4.85462 3.4716 8.37872 1.73506 2.88871 4.01634 1.18075 1.57344 6.33045 2.59123 8.18172 1.47726 5.54035 2.46332 4.95777 1.18075 2.0267 3.86589 1.44586 2.2399 4.44881 1.03101 4.39047 2.94017 1.34564 0.876193 3.25104 1.75117 3.21842 5.04992 1.74778 2.4147 3.56561 3.66989 6.8376 2.57201 6.03929 0.697664 6.02688 2.74267 5.9901 6.96478 1.99568 1.06881 2.69455 0.515794 2.47707 3.97661 4.595 0.321006 7.22577 1.38319 7.92639 0.70189 0.868403 2.58308 3.36295 3.44303 0.289269 6.69479 3.55083 2.3872 5.13934 1.83085 2.68488 3.83787 3.82184 0.381854 4.73845 4.39998 2.02436 1.18173 3.16324 8.5346 1.70715 8.73336 0.402149 8.34421 0.539795 2.57511 2.9797 0.742987 1.61924 4.05209 1.49448 0.346648 6.69233 2.95116 2.40048 3.83787 2.72099 4.99747 0.325138 1.68615 1.60288 3.21499 2.36606 1.94276 6.12305 1.26343 7.36049 2.37555 3.8433 3.86776 1.02451 2.92867 10.9879 0.471958 3.7032 5.28579 1.98697 1.36574 4.11293 3.62036 1.06881 9.01741 3.5587 4.63305 1.49221 4.7324 0.379376 2.97479 0.513427 6.39958 1.46692 2.85307 2.56676 4.01254 4.14261 1.52467 2.3894 4.03877 1.12688 5.10547 2.16805 4.23585 3.97974 1.98381 4.8837 0.733457 1.28438 3.23886 3.56729 2.37245 7.03229 4.59383 5.9248 2.03544 2.97393 1.49448 1.03647 8.11492 2.3872 1.26599 3.03147 1.43803 2.00693 0.609855 1.65009 3.79231 3.27421 2.02604 6.48882 3.81319 1.3272 4.05633 1.75535 6.94735 1.05371 7.6312 3.05981 3.19776 4.83485 6.08564 4.70484 3.53903 3.20182 2.0633 7.52278 1.19514 4.58236 3.2856 0.922034 5.95116 0.319584 2.22441 1.7111 7.35852 3.86368 8.43556 0.424363 4.69581 0.527669 1.19514 0.632227 0.695521 4.02866 3.72317 4.25979 7.06561 2.93126 6.43742 5.04293 2.95609 0.495585 0.352445 7.45759 1.76716 2.34964 8.55695 0.109945 1.63699 4.082 1.78813 3.1567 7.41988 0.552319 4.02491 2.40412 1.15782 1.31989 2.16202 5.94137 3.22923 1.02689 5.62389 1.10671 7.64847 0.371866 2.57201 0.829779 2.92867 4.37473 6.09912 2.4232 6.21126 4.91754 3.62053 1.47722 6.72741 1.62515 2.34549 1.67834 4.11393 1.11953 3.1727 3.11439 4.23851 4.84373 3.53957 5.10547 2.33526 1.20046 1.76738 5.24854 2.52793 3.95275 3.12975 1.31618 7.19586 
</DataArray>
<DataArray type="Float64" Name="wall variable 0" format="ascii">