<VTKFile type="UnstructuredGrid" version="0.1">
<UnstructuredGrid>
<Piece  NumberOfPoints="    2454" NumberOfCells="     410">
<Points>
<DataArray type="Float64" NumberOfComponents="3" format="ascii">
-1.9966 -14.0498 0.0
-1.05917 -15.9068 0.0
1.47747 -15.2634 0.0
1.13763 -12.9431 0.0
-0.331168 -8.25591 0.0
-1.2096 -8.14591 0.0
-1.63365 -8.34404 0.0
-2.94204 -11.2983 0.0
31.4427 21.3575 0.0
31.6505 21.3364 0.0
35.1425 26.3392 0.0
28.7557 25.9806 0.0
28.8559 25.4233 0.0
-4.89887 -57.582 0.0
-4.42491 -56.0572 0.0
-12.7975 -56.8266 0.0
-15.2777 -59.2994 0.0
-14.6768 -60.1359 0.0
-7.12373 -58.4264 0.0
-9.00191 39.0689 0.0
-9.8192 37.2052 0.0
-1.56319 38.1581 0.0
-1.77312 38.9313 0.0
-5.48732 41.1496 0.0
-5.86944 40.9902 0.0
-52.3527 -18.2257 0.0
-52.2872 -17.5057 0.0
-54.3889 -8.92815 0.0
-55.0991 -9.50145 0.0
-54.8495 -18.7841 0.0
-54.4012 -19.5554 0.0
-52.8067 -19.3186 0.0
27.5824 -45.0734 0.0
21.2114 -47.5942 0.0
19.9132 -52.1508 0.0
22.2039 -51.7991 0.0
23.095 -51.4855 0.0
28.9235 -45.7559 0.0
11.7237 -2.18444 0.0
10.6901 -5.085 0.0
11.8578 -6.4759 0.0
19.9716 -3.50091 0.0
20.0943 -3.15516 0.0
20.0325 -2.04397 0.0
34.7632 -38.8719 0.0
32.4588 -37.2084 0.0
27.9242 -43.518 0.0
28.3417 -44.3675 0.0
29.6829 -45.0501 0.0
30.945 -45.0595 0.0
33.3278 -42.2415 0.0
17.7465 -22.1589 0.0
17.9609 -22.8388 0.0
23.927 -24.7562 0.0
22.8143 -19.6715 0.0
20.217 -19.9541 0.0
17.8679 -21.3539 0.0
-21.1575 -31.3991 0.0
-21.6808 -31.5372 0.0
-19.114 -37.1635 0.0
-17.6465 -37.8934 0.0
-15.835 -36.6895 0.0
-15.576 -36.1328 0.0
-15.5974 -34.2714 0.0
-20.5285 -31.587 0.0
8.59445 31.574 0.0
11.4657 31.2159 0.0
12.699 31.2421 0.0
13.305 34.928 0.0
10.2008 35.3658 0.0
6.84467 35.1567 0.0
6.6307 33.1503 0.0
7.03477 32.5633 0.0
0.301537 -31.6842 0.0
-0.229565 -33.0472 0.0
5.94946 -37.221 0.0
7.65833 -36.8955 0.0
8.39329 -34.4149 0.0
5.15337 -32.1666 0.0
0.787635 -31.7338 0.0
-59.4438 17.2132 0.0
-60.4052 13.4356 0.0
-58.4188 11.6294 0.0
-54.5679 19.0012 0.0
-21.8123 -30.8097 0.0
-21.6435 -28.2288 0.0
-27.5351 -26.1357 0.0
-28.2171 -28.8554 0.0
-25.2834 -30.9883 0.0
-22.3356 -30.9478 0.0
41.9953 -14.3881 0.0
40.0101 -14.2166 0.0
39.8265 -14.5827 0.0
41.0834 -20.7775 0.0
41.824 -21.4859 0.0
45.2025 -20.1792 0.0
46.349 -18.9367 0.0
-50.6302 -10.6006 0.0
-48.9338 -11.8752 0.0
-43.1214 -11.1619 0.0
-45.3678 -9.7197 0.0
-51.9427 -6.9324 0.0
-51.9613 -6.99026 0.0
-12.6385 33.3291 0.0
-16.6054 32.2444 0.0
-17.6467 31.7955 0.0
-17.8856 26.258 0.0
-17.7017 25.1804 0.0
-12.7106 28.5593 0.0
-12.3425 29.2234 0.0
35.9314 6.95266 0.0
41.2947 6.9023 0.0
45.252 8.65339 0.0
45.0148 9.2018 0.0
39.4644 10.7663 0.0
39.0591 11.7214 0.0
39.6814 11.137 0.0
45.2318 9.57253 0.0
44.645 14.2191 0.0
43.2411 15.3265 0.0
32.1642 -37.019 0.0
31.6114 -36.1113 0.0
31.0779 -36.3642 0.0
26.2924 -38.7442 0.0
25.4048 -41.1897 0.0
25.8879 -41.6559 0.0
27.6296 -43.3286 0.0
-44.8955 -9.48085 0.0
-42.6492 -10.9231 0.0
-41.9046 -11.293 0.0
-40.9901 -6.68843 0.0
-41.706 -5.46322 0.0
-46.5299 -4.42156 0.0
-48.2068 35.0466 0.0
-44.7534 35.0186 0.0
-42.9265 35.8875 0.0
-42.1456 37.5653 0.0
-41.6511 42.0304 0.0
-42.6018 42.685 0.0
-43.225 42.3877 0.0
23.5575 26.2664 0.0
26.1339 28.237 0.0
26.0415 30.2013 0.0
25.5522 30.993 0.0
21.9733 33.4575 0.0
21.6561 33.4072 0.0
-26.5091 12.6491 0.0
-25.1328 13.6609 0.0
-25.9252 20.0478 0.0
-30.2127 19.202 0.0
-11.8014 29.4981 0.0
-8.88 30.5205 0.0
-6.68983 34.7738 0.0
-11.6013 34.0766 0.0
-12.0975 33.6038 0.0
21.2964 -4.73209 0.0
21.2918 -4.90031 0.0
24.3093 -8.48056 0.0
31.6428 -8.50329 0.0
32.8585 -7.75653 0.0
-35.6563 0.0479967 0.0
-33.316 -0.573161 0.0
-31.6833 2.95327 0.0
-37.3089 8.25556 0.0
-0.284662 19.9729 0.0
-2.45305 14.3117 0.0
-2.23127 12.7849 0.0
0.791499 14.2687 0.0
3.22715 16.176 0.0
-26.381 46.0451 0.0
-26.6058 45.4373 0.0
-22.0943 45.7168 0.0
-19.0738 48.3545 0.0
-19.154 49.249 0.0
-23.5842 50.0056 0.0
58.7976 4.54141 0.0
58.6072 4.80404 0.0
53.102 0.544725 0.0
53.1238 -4.71082 0.0
56.7503 -1.56988 0.0
4.43703 37.5902 0.0
4.94792 37.514 0.0
7.46253 44.1121 0.0
3.655 48.1652 0.0
2.77515 45.3481 0.0
-36.1025 34.9774 0.0
-34.2803 35.3318 0.0
-32.9343 38.1565 0.0
-33.6404 41.2972 0.0
-34.1491 41.5525 0.0
-37.8928 39.1931 0.0
23.097 44.353 0.0
23.3763 46.6365 0.0
18.8819 51.9824 0.0
17.7461 50.8208 0.0
17.601 50.4808 0.0
18.4828 46.2945 0.0
0.261371 -40.2956 0.0
-0.503111 -39.9097 0.0
-1.96941 -40.4882 0.0
-3.52807 -42.9987 0.0
-3.07559 -46.3878 0.0
-0.0990682 -46.6888 0.0
24.2176 -29.9509 0.0
30.9538 -26.7265 0.0
31.3786 -24.0026 0.0
25.2442 -25.5312 0.0
24.8899 -25.7131 0.0
22.8028 -28.4809 0.0
24.0152 -29.8896 0.0
24.1773 -29.9414 0.0
-26.3605 -11.3494 0.0
-26.366 -11.6827 0.0
-25.3965 -13.2663 0.0
-22.1048 -13.1245 0.0
-19.3614 -12.6296 0.0
-19.4635 -9.97409 0.0
-54.7817 -23.5622 0.0
-54.8408 -23.8144 0.0
-54.2271 -28.9813 0.0
-51.5908 -34.7986 0.0
-49.8199 -34.4195 0.0
-49.4996 -29.6922 0.0
-53.0243 -25.7001 0.0
48.792 -26.2204 0.0
49.0289 -24.9764 0.0
45.5013 -20.7115 0.0
42.1228 -22.0181 0.0
41.9165 -22.8583 0.0
52.2092 1.56213 0.0
51.9247 6.33623 0.0
51.6163 6.31128 0.0
48.8998 5.67966 0.0
48.2959 -2.46071 0.0
-16.0539 52.9083 0.0
-18.0516 49.9326 0.0
-9.6642 50.3591 0.0
-9.41358 51.239 0.0
54.5891 -10.3806 0.0
53.4595 -10.1497 0.0
52.5774 -17.839 0.0
54.052 -18.4667 0.0
55.3845 -17.9264 0.0
56.0913 -11.8459 0.0
56.0219 -11.1475 0.0
28.7075 -16.7925 0.0
29.4522 -17.2702 0.0
39.0292 -12.5312 0.0
38.8001 -10.5008 0.0
38.1967 -10.3512 0.0
34.4699 -12.8455 0.0
-26.5414 40.8016 0.0
-27.8117 39.531 0.0
-27.3463 38.7071 0.0
-23.6596 37.3331 0.0
-22.6934 37.9773 0.0
-22.3605 38.3443 0.0
-20.6615 42.2114 0.0
-48.0334 -29.0723 0.0
-48.9791 -29.989 0.0
-49.2995 -34.7162 0.0
-46.1353 -36.0621 0.0
-43.2292 -32.7889 0.0
6.39787 -64.756 0.0
8.70223 -62.4167 0.0
8.94305 -62.0024 0.0
5.1087 -52.7654 0.0
4.02201 -53.1242 0.0
45.1819 3.06687 0.0
44.8984 1.42893 0.0
46.7593 -5.02323 0.0
47.4437 -4.74914 0.0
47.9643 -2.60973 0.0
48.5681 5.53064 0.0
46.849 6.18195 0.0
26.5527 -17.6075 0.0
23.3365 -19.531 0.0
24.4493 -24.6157 0.0
24.8078 -25.09 0.0
25.1621 -24.9082 0.0
30.1759 -18.9723 0.0
28.6055 -17.9659 0.0
27.8608 -17.4882 0.0
-19.8734 -7.0536 0.0
-19.8192 -6.71931 0.0
-26.7943 -4.1025 0.0
-28.1415 -4.66097 0.0
-26.5381 -8.4085 0.0
17.1667 50.3468 0.0
15.6009 49.9355 0.0
13.4887 43.8177 0.0
14.6726 43.3129 0.0
16.481 43.8593 0.0
18.0485 46.1605 0.0
33.7301 -42.513 0.0
31.3472 -45.331 0.0
32.4262 -46.4041 0.0
32.6976 -46.5621 0.0
37.2721 -45.4845 0.0
40.1413 -42.6664 0.0
40.3885 -42.2821 0.0
1.62711 -13.5507 0.0
1.96696 -15.8709 0.0
4.15813 -23.009 0.0
5.96301 -21.2593 0.0
6.31102 -17.2303 0.0
11.6452 -8.531 0.0
10.8244 -12.0949 0.0
13.2566 -13.6165 0.0
14.2586 -13.7099 0.0
16.9831 -9.11717 0.0
-19.6063 -2.53868 0.0
-20.9796 2.13661 0.0
-26.1149 0.881027 0.0
-24.0918 -2.21557 0.0
-20.253 -31.1995 0.0
-15.3219 -33.8839 0.0
-12.511 -31.3227 0.0
-12.5232 -28.8476 0.0
-14.132 -27.8613 0.0
9.30987 -20.661 0.0
12.4642 -20.8069 0.0
16.0419 -20.1534 0.0
15.3753 -16.8141 0.0
14.9548 -15.2385 0.0
14.2172 -14.4403 0.0
13.2153 -14.3469 0.0
-2.02715 32.7248 0.0
-1.52705 32.0586 0.0
3.79455 31.4556 0.0
5.84618 33.2171 0.0
6.06014 35.2235 0.0
5.93848 35.4755 0.0
4.68096 36.6075 0.0
4.17008 36.6837 0.0
-0.259654 36.2621 0.0
-0.774584 35.628 0.0
-14.5351 -9.76372 0.0
-14.9974 -4.36754 0.0
-15.3325 -3.85761 0.0
-18.3074 -3.80186 0.0
-19.0149 -6.72485 0.0
-19.069 -7.05913 0.0
-18.9451 -7.58619 0.0
-20.2531 -48.8143 0.0
-20.7504 -48.3977 0.0
-24.7418 -51.8941 0.0
-21.0699 -54.9171 0.0
-20.0346 -52.4736 0.0
15.9092 -16.8101 0.0
16.5758 -20.1494 0.0
17.6115 -20.9628 0.0
19.9606 -19.563 0.0
21.602 -15.7252 0.0
52.6287 0.201631 0.0
52.2646 0.965599 0.0
48.3513 -3.05724 0.0
47.8308 -5.19665 0.0
51.8498 -6.75914 0.0
52.6505 -5.05391 0.0
32.6574 20.5171 0.0
32.0709 20.4756 0.0
32.9969 12.6333 0.0
34.8859 13.2561 0.0
36.9871 16.2946 0.0
-0.822169 -16.6719 0.0
1.79123 -23.7516 0.0
3.76739 -23.5041 0.0
3.90565 -23.1665 0.0
1.71447 -16.0285 0.0
-14.9208 -36.1907 0.0
-8.97083 -39.0784 0.0
-9.51109 -34.2451 0.0
-10.6536 -32.7443 0.0
-12.1313 -31.7681 0.0
-14.9422 -34.3293 0.0
-20.0275 32.1292 0.0
-18.6876 32.6148 0.0
-16.5943 39.1658 0.0
-21.8866 37.9768 0.0
-22.2195 37.6097 0.0
0.69933 -31.2357 0.0
5.06507 -31.6685 0.0
4.99877 -25.6618 0.0
4.55983 -25.1804 0.0
-39.818 -2.10537 0.0
-39.8455 -2.41926 0.0
-34.4337 -5.54104 0.0
-33.3988 -2.60795 0.0
-33.1734 -1.68951 0.0
-33.4781 -1.1365 0.0
-35.8183 -0.515346 0.0
-39.077 -0.512183 0.0
-5.66185 1.80142 0.0
-8.0953 0.223492 0.0
-2.04058 -5.81611 0.0
-3.60755 -0.415312 0.0
-3.90366 0.375326 0.0
-45.1856 31.7087 0.0
-45.0887 34.4335 0.0
-48.5421 34.4615 0.0
-49.0163 34.1595 0.0
-49.2954 33.789 0.0
-49.9826 31.7753 0.0
-49.0919 29.3099 0.0
-10.807 -42.7175 0.0
-10.3059 -43.0913 0.0
-5.9527 -41.9676 0.0
-8.8538 -39.5755 0.0
-14.8038 -36.6877 0.0
-15.0628 -37.2445 0.0
-37.9487 11.731 0.0
-37.8869 9.70882 0.0
-37.1907 8.66507 0.0
-31.5651 3.36278 0.0
-29.6638 4.51728 0.0
-28.8853 6.22265 0.0
-34.1972 9.45154 0.0
-0.913208 6.96838 0.0
-0.960558 7.83434 0.0
-3.40121 10.3302 0.0
-6.86256 8.42156 0.0
-6.75564 7.43486 0.0
-6.01829 5.02132 0.0
-21.2554 2.53112 0.0
-21.2377 3.0891 0.0
-21.6039 3.6854 0.0
-22.9282 4.57622 0.0
-27.7744 6.14972 0.0
-28.076 5.85754 0.0
-28.8545 4.15217 0.0
-27.3821 2.2806 0.0
-26.3907 1.27554 0.0
-41.2769 4.66047 0.0
-42.9952 5.26298 0.0
-47.1073 2.00274 0.0
-40.114 0.462397 0.0
-27.7 -39.0525 0.0
-27.4781 -38.4139 0.0
-30.8205 -29.8805 0.0
-31.0643 -29.8764 0.0
-33.8846 -33.6462 0.0
-29.382 -38.063 0.0
-18.0328 49.6955 0.0
-18.258 49.3621 0.0
-18.1777 48.4675 0.0
-17.8066 48.0245 0.0
-11.898 47.2271 0.0
-10.2242 48.1085 0.0
-9.64538 50.122 0.0
-21.1576 -30.6729 0.0
-20.5286 -30.8609 0.0
-14.4076 -27.5226 0.0
-17.4134 -24.3666 0.0
-19.8561 -25.1069 0.0
-20.9889 -28.0921 0.0
15.9353 12.4218 0.0
16.0374 10.4909 0.0
17.4893 9.01764 0.0
22.0231 18.5083 0.0
20.6028 20.1127 0.0
20.2204 20.0932 0.0
9.56511 -41.1985 0.0
9.84254 -41.4639 0.0
13.0585 -36.8812 0.0
13.0311 -36.4363 0.0
11.3482 -32.9495 0.0
9.00122 -34.6916 0.0
[...]
<CellData Scalars="cell variable 4" Vectors="cell vector">
<DataArray type="Float64" NumberOfComponents="3" Name="cell vector" format="ascii">
0 0 0
0 0 0
0 0 0
0 0 0
0 0 0
0 0 0
0 0 0
0 0 0
0 0 0
0 0 0
0 0 0
0 0 0
0 0 0
0 0 0
0 0 0
0 0 0
0 0 0
0 0 0
0 0 0
0 0 0
0 0 0
0 0 0
0 0 0
0 0 0
0 0 0
0 0 0
0 0 0
0 0 0
0 0 0
0 0 0
0 0 0
0 0 0
0 0 0
0 0 0
0 0 0
0 0 0
0 0 0
0 0 0
0 0 0
0 0 0
0 0 0
0 0 0
0 0 0
0 0 0
0 0 0
0 0 0
0 0 0
0 0 0
0 0 0
0 0 0
0 0 0
0 0 0
0 0 0
0 0 0
0 0 0
0 0 0
0 0 0
0 0 0
0 0 0
0 0 0
0 0 0
0 0 0
0 0 0
0 0 0
0 0 0
0 0 0
0 0 0
0 0 0
0 0 0
0 0 0
0 0 0
0 0 0
0 0 0
0 0 0
0 0 0
0 0 0
0 0 0
0 0 0
0 0 0
0 0 0
0 0 0
0 0 0
0 0 0
0 0 0
0 0 0
0 0 0
0 0 0
0 0 0
0 0 0
0 0 0
0 0 0
0 0 0
0 0 0
0 0 0
0 0 0
0 0 0
0 0 0
0 0 0
0 0 0
0 0 0
0 0 0
0 0 0
0 0 0
0 0 0
0 0 0
0 0 0
0 0 0
0 0 0
0 0 0
0 0 0
0 0 0
0 0 0
0 0 0
0 0 0
0 0 0
0 0 0
0 0 0
0 0 0
0 0 0
0 0 0
0 0 0
0 0 0
0 0 0
0 0 0
0 0 0
0 0 0
0 0 0
0 0 0
0 0 0
0 0 0
0 0 0
0 0 0
0 0 0
0 0 0
0 0 0
0 0 0
0 0 0
0 0 0
0 0 0
0 0 0
0 0 0
0 0 0
0 0 0
0 0 0
0 0 0
0 0 0
0 0 0
0 0 0
0 0 0
0 0 0
0 0 0
0 0 0
0 0 0
0 0 0
0 0 0
0 0 0
0 0 0
0 0 0
0 0 0
0 0 0
0 0 0
0 0 0
0 0 0
0 0 0
0 0 0
0 0 0
0 0 0
0 0 0
0 0 0
0 0 0
0 0 0
0 0 0
0 0 0
0 0 0
0 0 0
0 0 0
0 0 0
0 0 0
0 0 0
0 0 0
0 0 0
0 0 0
0 0 0
0 0 0
0 0 0
0 0 0
0 0 0
0 0 0
0 0 0
0 0 0
0 0 0
0 0 0
0 0 0
0 0 0
0 0 0
0 0 0
0 0 0
0 0 0
0 0 0
0 0 0
0 0 0
0 0 0
0 0 0
0 0 0
0 0 0
0 0 0
0 0 0
0 0 0
0 0 0
0 0 0
0 0 0
0 0 0
0 0 0
0 0 0
0 0 0
0 0 0
0 0 0
0 0 0
0 0 0
0 0 0
0 0 0
0 0 0
0 0 0
0 0 0
0 0 0
0 0 0
0 0 0
0 0 0
0 0 0
0 0 0
0 0 0
0 0 0
0 0 0
0 0 0
0 0 0
0 0 0
0 0 0
0 0 0
0 0 0
0 0 0
0 0 0
0 0 0
0 0 0
0 0 0
0 0 0
0 0 0
0 0 0
0 0 0
0 0 0
0 0 0
0 0 0
0 0 0
0 0 0
0 0 0
0 0 0
0 0 0
0 0 0
0 0 0
0 0 0
0 0 0
0 0 0
0 0 0
0 0 0
0 0 0
0 0 0
0 0 0
0 0 0
0 0 0
0 0 0
0 0 0
0 0 0
0 0 0
0 0 0
0 0 0
0 0 0
0 0 0
0 0 0
0 0 0
0 0 0
0 0 0
0 0 0
0 0 0
0 0 0
0 0 0
0 0 0
0 0 0
0 0 0
0 0 0
0 0 0
0 0 0
0 0 0
0 0 0
0 0 0
0 0 0
0 0 0
0 0 0
0 0 0
0 0 0
0 0 0
0 0 0
0 0 0
0 0 0
0 0 0
0 0 0
0 0 0
0 0 0
0 0 0
0 0 0
0 0 0
0 0 0
0 0 0
0 0 0
0 0 0
0 0 0
0 0 0
0 0 0
0 0 0
0 0 0
0 0 0
0 0 0
0 0 0
0 0 0
0 0 0
0 0 0
0 0 0
0 0 0
0 0 0
0 0 0
0 0 0
0 0 0
0 0 0
0 0 0
0 0 0
0 0 0
0 0 0
0 0 0
0 0 0
0 0 0
0 0 0
0 0 0
0 0 0
0 0 0
0 0 0
0 0 0
0 0 0
0 0 0
0 0 0
0 0 0
0 0 0
0 0 0
0 0 0
0 0 0
0 0 0
0 0 0
0 0 0
0 0 0
0 0 0
0 0 0
0 0 0
0 0 0
0 0 0
0 0 0
0 0 0
0 0 0
0 0 0
0 0 0
0 0 0
0 0 0
0 0 0
0 0 0
0 0 0
0 0 0
0 0 0
0 0 0
0 0 0
0 0 0
0 0 0
0 0 0
0 0 0
0 0 0
0 0 0
0 0 0
0 0 0
0 0 0
0 0 0
0 0 0
0 0 0
0 0 0
0 0 0
0 0 0
0 0 0
0 0 0
0 0 0
0 0 0
0 0 0
0 0 0
0 0 0
0 0 0
0 0 0
0 0 0
0 0 0
0 0 0
0 0 0
0 0 0
0 0 0
0 0 0
0 0 0
0 0 0
0 0 0
0 0 0
</DataArray>
<DataArray type="Float64" Name="cell vector length" format="ascii">
0 0 0 0 0 0 0 0 0 0 0 0 0 0 0 0 0 0 0 0 0 0 0 0 0 0 0 0 0 0 0 0 0 0 0 0 0 0 0 0 0 0 0 0 0 0 0 0 0 0 0 0 0 0 0 0 0 0 0 0 0 0 0 0 0 0 0 0 0 0 0 0 0 0 0 0 0 0 0 0 0 0 0 0 0 0 0 0 0 0 0 0 0 0 0 0 0 0 0 0 0 0 0 0 0 0 0 0 0 0 0 0 0 0 0 0 0 0 0 0 0 0 0 0 0 0 0 0 0 0 0 0 0 0 0 0 0 0 0 0 0 0 0 0 0 0 0 0 0 0 0 0 0 0 0 0 0 0 0 0 0 0 0 0 0 0 0 0 0 0 0 0 0 0 0 0 0 0 0 0 0 0 0 0 0 0 0 0 0 0 0 0 0 0 0 0 0 0 0 0 0 0 0 0 0 0 0 0 0 0 0 0 0 0 0 0 0 0 0 0 0 0 0 0 0 0 0 0 0 0 0 0 0 0 0 0 0 0 0 0 0 0 0 0 0 0 0 0 0 0 0 0 0 0 0 0 0 0 0 0 0 0 0 0 0 0 0 0 0 0 0 0 0 0 0 0 0 0 0 0 0 0 0 0 0 0 0 0 0 0 0 0 0 0 0 0 0 0 0 0 0 0 0 0 0 0 0 0 0 0 0 0 0 0 0 0 0 0 0 0 0 0 0 0 0 0 0 0 0 0 0 0 0 0 0 0 0 0 0 0 0 0 0 0 0 0 0 0 0 0 0 0 0 0 0 0 0 0 0 0 0 0 0 0 0 0 0 0 0 0 0 0 0 0 0 0 0 0 0 0 0 0 0 0 0 0 0 0 0 0 0 0 0 0 0 0 0 0 0 0 0 0 0 0 0 0 0 0 0 0 
</DataArray>
<DataArray type="Float64" Name="cell variable 4" format="ascii">
1.11547 1.06245 0.789941 1.07467 0.919422 0.94865 1.11547 0.94865 1.11547 0.90618 1.14226 1.04461 0.8063 1.04461 0.912892 0.919422 1.07467 1.10185 1.10185 0.94865 0.919422 0.99432 1.06245 1.00681 1.07467 1.10185 1.00681 1.14226 0.99432 0.912892 0.980966 0.99432 0.980966 1.04461 1.11547 1.12037 0.919422 0.912892 0.912892 0.763876 0.912892 1.11547 0.99432 0.919422 0.789941 1.10185 1.11547 1.12037 0.980966 0.657465 1.11547 1.11547 1.12037 1.04461 1.11547 1.07467 1.12037 0.90618 1.11547 0.912892 1.10185 1.11547 1.04461 1.07467 1.04461 0.919422 1.12037 1.00681 1.04461 1.00681 1.12037 1.12037 1.00681 0.90618 0.763876 1.04461 1.14226 0.94865 1.00681 1.11547 1.04461 0.919422 1.11547 0.848855 1.11547 1.11547 1.04461 1.10185 1.14226 1.07467 0.94865 0.980966 0.8063 0.657465 0.980966 0.980966 1.00681 0.919422 1.12037 1.11547 1.04461 1.04461 0.919422 0.94865 0.919422 0.919422 0.99432 1.12037 0.631062 0.912892 0.763876 1.00681 1.10185 0.848855 1.00681 1.14226 1.14226 1.07467 1.11547 0.789941 1.14226 1.07467 1.00681 0.94865 1.06245 0.657465 0.789941 0.8063 0.99432 1.04461 1.11547 1.11547 1.00681 1.07467 1.06245 1.06245 1.06245 0.99432 1.04461 0.919422 0.90618 1.00681 1.12037 0.763876 0.90618 0.99432 1.07467 0.99432 0.980966 0.848855 1.04461 0.980966 0.919422 0.919422 1.00681 0.8063 0.912892 1.12037 1.12037 1.04461 1.07467 0.94865 1.04461 1.06245 1.00681 1.14226 1.04461 1.11547 1.11547 1.10185 1.10185 0.919422 1.12037 0.919422 0.848855 0.94865 1.00681 1.00681 1.12037 0.919422 1.12037 1.00681 1.00681 1.11547 1.00681 0.980966 1.06245 1.11547 1.04461 1.06245 1.07467 0.980966 1.07467 0.90618 0.980966 0.789941 0.94865 0.94865 0.8063 0.848855 0.94865 0.90618 1.11547 0.912892 1.12037 1.04461 0.94865 0.90618 1.04461 0.980966 1.07467 1.10185 1.07467 1.06245 0.980966 1.10185 0.94865 1.12037 1.07467 1.07467 1.04461 1.04461 0.980966 1.10185 1.04461 1.06245 1.11547 1.10185 0.912892 0.919422 1.07467 0.90618 0.848855 1.10185 1.04461 0.919422 1.10185 1.10185 0.980966 0.919422 1.10185 0.94865 0.919422 1.11547 0.94865 1.00681 0.90618 0.763876 1.07467 1.07467 1.10185 0.848855 0.912892 1.14226 0.919422 1.12037 1.10185 0.99432 1.06245 1.14226 1.11547 0.99432 1.06245 0.919422 0.94865 1.14226 1.14226 0.912892 0.919422 0.919422 1.11547 0.8063 1.12037 1.04461 1.14226 1.11547 1.00681 0.848855 0.94865 1.11547 1.00681 1.06245 1.10185 1.04461 1.14226 0.912892 1.12037 1.14226 1.10185 1.00681 0.912892 1.14226 0.94865 0.90618 0.980966 1.07467 1.00681 1.12037 1.06245 0.848855 0.919422 1.10185 1.12037 1.06245 0.912892 1.00681 1.11547 1.07467 0.94865 1.06245 0.90618 0.919422 1.12037 1.07467 0.912892 0.848855 1.10185 1.11547 0.980966 1.10185 1.11547 0.789941 0.789941 0.980966 0.919422 0.848855 1.07467 1.14226 1.07467 1.00681 1.04461 1.14226 0.8063 1.11547 0.94865 0.980966 0.90618 0.980966 1.04461 0.919422 0.90618 0.919422 1.00681 0.94865 0.99432 1.06245 0.8063 0.980966 0.99432 1.12037 0.90618 1.12037 0.919422 1.12037 1.00681 0.789941 1.00681 0.90618 0.8063 1.14226 1.12037 1.07467 0.980966 0.94865 0.919422 1.14226 0.980966 1.06245 0.789941 1.11547 0.980966 1.12037 1.00681 1.10185 0.90618 1.04461 1.12037 0.919422 1.10185 1.07467 1.10185 1.11547 1.06245 1.00681 0.912892 0.919422 1.04461 0.90618 1.14226 0.763876 1.07467 1.04461 0.90618 0.657465 1.04461 1.11547 0.90618 1.11547 1.06245 1.04461 0.94865 1.00681 0.90618 0.980966 1.00681 0.789941 1.00681 1.11547 0.94865 0.99432 
</DataArray>
<DataArray type="Float64" Name="cell variable 5" format="ascii">
0.00797274 0.00878122 0.0157727 0.00858434 0.0116913 0.0109898 0.00797274 0.0109898 0.00797274 0.0120314 0.00760594 0.00908091 0.0151488 0.00908091 0.0118572 0.0116913 0.00858434 0.00816951 0.00816951 0.0109898 0.0116913 0.0100133 0.00878122 0.00976872 0.00858434 0.00816951 0.00976872 0.00760594 0.0100133 0.0118572 0.0102849 0.0100133 0.0102849 0.00908091 0.00797274 0.00790366 0.0116913 0.0118572 0.0118572 0.016849 0.0118572 0.00797274 0.0100133 0.0116913 0.0157727 0.00816951 0.00797274 0.00790366 0.0102849 0.0226112 0.00797274 0.00797274 0.00790366 0.00908091 0.00797274 0.00858434 0.00790366 0.0120314 0.00797274 0.0118572 0.00816951 0.00797274 0.00908091 0.00858434 0.00908091 0.0116913 0.00790366 0.00976872 0.00908091 0.00976872 0.00790366 0.00790366 0.00976872 0.0120314 0.016849 0.00908091 0.00760594 0.0109898 0.00976872 0.00797274 0.00908091 0.0116913 0.00797274 0.0136882 0.00797274 0.00797274 0.00908091 0.00816951 0.00760594 0.00858434 0.0109898 0.0102849 0.0151488 0.0226112 0.0102849 0.0102849 0.00976872 0.0116913 0.00790366 0.00797274 0.00908091 0.00908091 0.0116913 0.0109898 0.0116913 0.0116913 0.0100133 0.00790366 0.0244954 0.0118572 0.016849 0.00976872 0.00816951 0.0136882 0.00976872 0.00760594 0.00760594 0.00858434 0.00797274 0.0157727 0.00760594 0.00858434 0.00976872 0.0109898 0.00878122 0.0226112 0.0157727 0.0151488 0.0100133 0.00908091 0.00797274 0.00797274 0.00976872 0.00858434 0.00878122 0.00878122 0.00878122 0.0100133 0.00908091 0.0116913 0.0120314 0.00976872 0.00790366 0.016849 0.0120314 0.0100133 0.00858434 0.0100133 0.0102849 0.0136882 0.00908091 0.0102849 0.0116913 0.0116913 0.00976872 0.0151488 0.0118572 0.00790366 0.00790366 0.00908091 0.00858434 0.0109898 0.00908091 0.00878122 0.00976872 0.00760594 0.00908091 0.00797274 0.00797274 0.00816951 0.00816951 0.0116913 0.00790366 0.0116913 0.0136882 0.0109898 0.00976872 0.00976872 0.00790366 0.0116913 0.00790366 0.00976872 0.00976872 0.00797274 0.00976872 0.0102849 0.00878122 0.00797274 0.00908091 0.00878122 0.00858434 0.0102849 0.00858434 0.0120314 0.0102849 0.0157727 0.0109898 0.0109898 0.0151488 0.0136882 0.0109898 0.0120314 0.00797274 0.0118572 0.00790366 0.00908091 0.0109898 0.0120314 0.00908091 0.0102849 0.00858434 0.00816951 0.00858434 0.00878122 0.0102849 0.00816951 0.0109898 0.00790366 0.00858434 0.00858434 0.00908091 0.00908091 0.0102849 0.00816951 0.00908091 0.00878122 0.00797274 0.00816951 0.0118572 0.0116913 0.00858434 0.0120314 0.0136882 0.00816951 0.00908091 0.0116913 0.00816951 0.00816951 0.0102849 0.0116913 0.00816951 0.0109898 0.0116913 0.00797274 0.0109898 0.00976872 0.0120314 0.016849 0.00858434 0.00858434 0.00816951 0.0136882 0.0118572 0.00760594 0.0116913 0.00790366 0.00816951 0.0100133 0.00878122 0.00760594 0.00797274 0.0100133 0.00878122 0.0116913 0.0109898 0.00760594 0.00760594 0.0118572 0.0116913 0.0116913 0.00797274 0.0151488 0.00790366 0.00908091 0.00760594 0.00797274 0.00976872 0.0136882 0.0109898 0.00797274 0.00976872 0.00878122 0.00816951 0.00908091 0.00760594 0.0118572 0.00790366 0.00760594 0.00816951 0.00976872 0.0118572 0.00760594 0.0109898 0.0120314 0.0102849 0.00858434 0.00976872 0.00790366 0.00878122 0.0136882 0.0116913 0.00816951 0.00790366 0.00878122 0.0118572 0.00976872 0.00797274 0.00858434 0.0109898 0.00878122 0.0120314 0.0116913 0.00790366 0.00858434 0.0118572 0.0136882 0.00816951 0.00797274 0.0102849 0.00816951 0.00797274 0.0157727 0.0157727 0.0102849 0.0116913 0.0136882 0.00858434 0.00760594 0.00858434 0.00976872 0.00908091 0.00760594 0.0151488 0.00797274 0.0109898 0.0102849 0.0120314 0.0102849 0.00908091 0.0116913 0.0120314 0.0116913 0.00976872 0.0109898 0.0100133 0.00878122 0.0151488 0.0102849 0.0100133 0.00790366 0.0120314 0.00790366 0.0116913 0.00790366 0.00976872 0.0157727 0.00976872 0.0120314 0.0151488 0.00760594 0.00790366 0.00858434 0.0102849 0.0109898 0.0116913 0.00760594 0.0102849 0.00878122 0.0157727 0.00797274 0.0102849 0.00790366 0.00976872 0.00816951 0.0120314 0.00908091 0.00790366 0.0116913 0.00816951 0.00858434 0.00816951 0.00797274 0.00878122 0.00976872 0.0118572 0.0116913 0.00908091 0.0120314 0.00760594 0.016849 0.00858434 0.00908091 0.0120314 0.0226112 0.00908091 0.00797274 0.0120314 0.00797274 0.00878122 0.00908091 0.0109898 0.00976872 0.0120314 0.0102849 0.00976872 0.0157727 0.00976872 0.00797274 0.0109898 0.0100133 
</DataArray>
<DataArray type="Float64" Name="cell variable 6" format="ascii">
4.32387e-06 5.74138e-06 3.156e-05 5.3719e-06 1.32528e-05 1.10661e-05 4.32387e-06 1.10661e-05 4.32387e-06 1.4406e-05 3.76475e-06 6.33494e-06 2.80904e-05 6.33494e-06 1.38076e-05 1.32528e-05 5.3719e-06 4.64493e-06 4.64493e-06 1.10661e-05 1.32528e-05 8.43313e-06 5.74138e-06 7.8448e-06 5.3719e-06 4.64493e-06 7.8448e-06 3.76475e-06 8.43313e-06 1.38076e-05 9.11938e-06 8.43313e-06 9.11938e-06 6.33494e-06 4.32387e-06 4.21468e-06 1.32528e-05 1.38076e-05 1.38076e-05 3.81646e-05 1.38076e-05 4.32387e-06 8.43313e-06 1.32528e-05 3.156e-05 4.64493e-06 4.32387e-06 4.21468e-06 9.11938e-06 8.84138e-05 4.32387e-06 4.32387e-06 4.21468e-06 6.33494e-06 4.32387e-06 5.3719e-06 4.21468e-06 1.4406e-05 4.32387e-06 1.38076e-05 4.64493e-06 4.32387e-06 6.33494e-06 5.3719e-06 6.33494e-06 1.32528e-05 4.21468e-06 7.8448e-06 6.33494e-06 7.8448e-06 4.21468e-06 4.21468e-06 7.8448e-06 1.4406e-05 3.81646e-05 6.33494e-06 3.76475e-06 1.10661e-05 7.8448e-06 4.32387e-06 6.33494e-06 1.32528e-05 4.32387e-06 2.09522e-05 4.32387e-06 4.32387e-06 6.33494e-06 4.64493e-06 3.76475e-06 5.3719e-06 1.10661e-05 9.11938e-06 2.80904e-05 8.84138e-05 9.11938e-06 9.11938e-06 7.8448e-06 1.32528e-05 4.21468e-06 4.32387e-06 6.33494e-06 6.33494e-06 1.32528e-05 1.10661e-05 1.32528e-05 1.32528e-05 8.43313e-06 4.21468e-06 0.000110922 1.38076e-05 3.81646e-05 7.8448e-06 4.64493e-06 2.09522e-05 7.8448e-06 3.76475e-06 3.76475e-06 5.3719e-06 4.32387e-06 3.156e-05 3.76475e-06 5.3719e-06 7.8448e-06 1.10661e-05 5.74138e-06 8.84138e-05 3.156e-05 2.80904e-05 8.43313e-06 6.33494e-06 4.32387e-06 4.32387e-06 7.8448e-06 5.3719e-06 5.74138e-06 5.74138e-06 5.74138e-06 8.43313e-06 6.33494e-06 1.32528e-05 1.4406e-05 7.8448e-06 4.21468e-06 3.81646e-05 1.4406e-05 8.43313e-06 5.3719e-06 8.43313e-06 9.11938e-06 2.09522e-05 6.33494e-06 9.11938e-06 1.32528e-05 1.32528e-05 7.8448e-06 2.80904e-05 1.38076e-05 4.21468e-06 4.21468e-06 6.33494e-06 5.3719e-06 1.10661e-05 6.33494e-06 5.74138e-06 7.8448e-06 3.76475e-06 6.33494e-06 4.32387e-06 4.32387e-06 4.64493e-06 4.64493e-06 1.32528e-05 4.21468e-06 1.32528e-05 2.09522e-05 1.10661e-05 7.8448e-06 7.8448e-06 4.21468e-06 1.32528e-05 4.21468e-06 7.8448e-06 7.8448e-06 4.32387e-06 7.8448e-06 9.11938e-06 5.74138e-06 4.32387e-06 6.33494e-06 5.74138e-06 5.3719e-06 9.11938e-06 5.3719e-06 1.4406e-05 9.11938e-06 3.156e-05 1.10661e-05 1.10661e-05 2.80904e-05 2.09522e-05 1.10661e-05 1.4406e-05 4.32387e-06 1.38076e-05 4.21468e-06 6.33494e-06 1.10661e-05 1.4406e-05 6.33494e-06 9.11938e-06 5.3719e-06 4.64493e-06 5.3719e-06 5.74138e-06 9.11938e-06 4.64493e-06 1.10661e-05 4.21468e-06 5.3719e-06 5.3719e-06 6.33494e-06 6.33494e-06 9.11938e-06 4.64493e-06 6.33494e-06 5.74138e-06 4.32387e-06 4.64493e-06 1.38076e-05 1.32528e-05 5.3719e-06 1.4406e-05 2.09522e-05 4.64493e-06 6.33494e-06 1.32528e-05 4.64493e-06 4.64493e-06 9.11938e-06 1.32528e-05 4.64493e-06 1.10661e-05 1.32528e-05 4.32387e-06 1.10661e-05 7.8448e-06 1.4406e-05 3.81646e-05 5.3719e-06 5.3719e-06 4.64493e-06 2.09522e-05 1.38076e-05 3.76475e-06 1.32528e-05 4.21468e-06 4.64493e-06 8.43313e-06 5.74138e-06 3.76475e-06 4.32387e-06 8.43313e-06 5.74138e-06 1.32528e-05 1.10661e-05 3.76475e-06 3.76475e-06 1.38076e-05 1.32528e-05 1.32528e-05 4.32387e-06 2.80904e-05 4.21468e-06 6.33494e-06 3.76475e-06 4.32387e-06 7.8448e-06 2.09522e-05 1.10661e-05 4.32387e-06 7.8448e-06 5.74138e-06 4.64493e-06 6.33494e-06 3.76475e-06 1.38076e-05 4.21468e-06 3.76475e-06 4.64493e-06 7.8448e-06 1.38076e-05 3.76475e-06 1.10661e-05 1.4406e-05 9.11938e-06 5.3719e-06 7.8448e-06 4.21468e-06 5.74138e-06 2.09522e-05 1.32528e-05 4.64493e-06 4.21468e-06 5.74138e-06 1.38076e-05 7.8448e-06 4.32387e-06 5.3719e-06 1.10661e-05 5.74138e-06 1.4406e-05 1.32528e-05 4.21468e-06 5.3719e-06 1.38076e-05 2.09522e-05 4.64493e-06 4.32387e-06 9.11938e-06 4.64493e-06 4.32387e-06 3.156e-05 3.156e-05 9.11938e-06 1.32528e-05 2.09522e-05 5.3719e-06 3.76475e-06 5.3719e-06 7.8448e-06 6.33494e-06 3.76475e-06 2.80904e-05 4.32387e-06 1.10661e-05 9.11938e-06 1.4406e-05 9.11938e-06 6.33494e-06 1.32528e-05 1.4406e-05 1.32528e-05 7.8448e-06 1.10661e-05 8.43313e-06 5.74138e-06 2.80904e-05 9.11938e-06 8.43313e-06 4.21468e-06 1.4406e-05 4.21468e-06 1.32528e-05 4.21468e-06 7.8448e-06 3.156e-05 7.8448e-06 1.4406e-05 2.80904e-05 3.76475e-06 4.21468e-06 5.3719e-06 9.11938e-06 1.10661e-05 1.32528e-05 3.76475e-06 9.11938e-06 5.74138e-06 3.156e-05 4.32387e-06 9.11938e-06 4.21468e-06 7.8448e-06 4.64493e-06 1.4406e-05 6.33494e-06 4.21468e-06 1.32528e-05 4.64493e-06 5.3719e-06 4.64493e-06 4.32387e-06 5.74138e-06 7.8448e-06 1.38076e-05 1.32528e-05 6.33494e-06 1.4406e-05 3.76475e-06 3.81646e-05 5.3719e-06 6.33494e-06 1.4406e-05 8.84138e-05 6.33494e-06 4.32387e-06 1.4406e-05 4.32387e-06 5.74138e-06 6.33494e-06 1.10661e-05 7.8448e-06 1.4406e-05 9.11938e-06 7.8448e-06 3.156e-05 7.8448e-06 4.32387e-06 1.10661e-05 8.43313e-06 
</DataArray>
<DataArray type="Float64" Name="cell variable 7" format="ascii">