<VTKFile type="UnstructuredGrid" version="0.1">
<UnstructuredGrid>
<Piece  NumberOfPoints="    2366" NumberOfCells="     395">
<Points>
<DataArray type="Float64" NumberOfComponents="3" format="ascii">
-2.16647 -15.4001 0.0
-1.00492 -17.2524 0.0
1.56294 -16.5676 0.0
1.36905 -14.0823 0.0
-0.248265 -8.95018 0.0
-1.30303 -8.79701 0.0
-1.79167 -9.04185 0.0
-3.16102 -12.4053 0.0
34.1076 22.9826 0.0
34.3413 22.9682 0.0
37.8351 28.3264 0.0
31.138 27.8592 0.0
31.2337 27.2432 0.0
-20.8072 7.39698 0.0
-16.7716 12.8786 0.0
-21.4019 14.6495 0.0
-9.91339 42.3621 0.0
-10.4827 40.2892 0.0
-1.94473 41.4695 0.0
-2.12528 42.3617 0.0
-6.18341 44.6817 0.0
-6.607 44.5221 0.0
-29.5385 -41.331 0.0
-27.3705 -38.6468 0.0
-27.5518 -34.1534 0.0
-30.8656 -31.7956 0.0
-33.1144 -32.4168 0.0
29.749 -48.7297 0.0
23.0532 -51.643 0.0
21.7814 -56.2711 0.0
24.1662 -55.9236 0.0
25.0645 -55.5699 0.0
31.1642 -49.4718 0.0
12.88 -2.30365 0.0
11.6666 -5.43635 0.0
12.9845 -6.92624 0.0
21.7 -3.87052 0.0
21.8413 -3.46333 0.0
21.7519 -2.16633 0.0
17.4358 -2.13911 0.0
37.6247 -41.9907 0.0
35.0319 -40.4477 0.0
30.2082 -47.0137 0.0
30.5627 -47.9685 0.0
31.9779 -48.7106 0.0
33.3 -48.4686 0.0
36.2188 -45.6726 0.0
19.2954 -24.0541 0.0
19.5823 -24.8001 0.0
25.9104 -26.6611 0.0
24.8894 -21.34 0.0
22.0518 -21.5544 0.0
19.3965 -23.1274 0.0
-22.7678 -33.9854 0.0
-23.3126 -34.2271 0.0
-20.7598 -40.2129 0.0
-19.2093 -41.1524 0.0
-17.1328 -39.9249 0.0
-16.8234 -39.3151 0.0
-16.8312 -37.2347 0.0
-22.059 -34.1669 0.0
9.46163 34.0472 0.0
12.557 33.6646 0.0
13.8463 33.9032 0.0
14.5054 37.7101 0.0
11.2312 38.3767 0.0
7.56323 38.0872 0.0
7.25171 35.7524 0.0
7.70686 35.0873 0.0
0.371951 -34.2518 0.0
-0.275864 -35.7723 0.0
6.14868 -40.1763 0.0
8.00606 -39.9038 0.0
8.88779 -37.2031 0.0
5.52134 -34.6449 0.0
0.902787 -34.202 0.0
34.6221 -28.6061 0.0
36.8677 -28.7426 0.0
44.1868 -25.4531 0.0
44.3904 -24.9717 0.0
44.5768 -24.021 0.0
43.7401 -23.2522 0.0
37.0842 -24.3786 0.0
35.0239 -25.7616 0.0
-23.4882 -33.3483 0.0
-23.6832 -30.5597 0.0
-29.8467 -28.353 0.0
-30.2486 -29.4959 0.0
-30.5868 -31.3332 0.0
-27.273 -33.691 0.0
-24.033 -33.59 0.0
45.5463 -15.7808 0.0
43.3778 -15.5568 0.0
43.163 -15.9737 0.0
44.4304 -22.621 0.0
45.2671 -23.3898 0.0
48.9588 -21.9 0.0
50.1051 -20.4469 0.0
-54.6859 -11.657 0.0
-52.8186 -12.9461 0.0
-46.8613 -12.0712 0.0
-49.2205 -10.4124 0.0
-56.1996 -7.6819 0.0
-56.217 -7.74794 0.0
-13.3799 36.1767 0.0
-17.2773 35.2084 0.0
-15.2943 29.9625 0.0
-13.4759 31.0675 0.0
-13.0579 31.8093 0.0
39.008 7.57838 0.0
44.6361 7.35471 0.0
48.811 9.43527 0.0
48.53 10.0583 0.0
42.662 11.6312 0.0
42.3743 12.7868 0.0
42.8881 12.0454 0.0
48.7562 10.4725 0.0
48.1917 15.6506 0.0
46.5999 16.7567 0.0
34.7108 -40.25 0.0
34.1484 -39.2476 0.0
33.5479 -39.416 0.0
28.5585 -41.9158 0.0
27.478 -44.5405 0.0
27.9303 -45.1186 0.0
29.8871 -46.816 0.0
-48.7154 -10.1523 0.0
-46.3562 -11.811 0.0
-45.5115 -12.1908 0.0
-44.3618 -7.32042 0.0
-45.1515 -5.95849 0.0
-50.3673 -4.96478 0.0
-10.6176 -7.65573 0.0
-7.74951 -7.48892 0.0
-5.57362 -6.93159 0.0
-11.1519 -1.45738 0.0
-11.5621 -1.38551 0.0
25.3989 28.5882 0.0
28.3543 30.4613 0.0
28.3979 32.6537 0.0
27.8729 33.5625 0.0
23.9427 36.237 0.0
23.5943 36.1331 0.0
-28.7366 14.0255 0.0
-27.2484 15.0948 0.0
-27.9751 21.6423 0.0
-32.5768 20.8951 0.0
-12.637 31.9832 0.0
-9.55617 33.1962 0.0
-7.27683 37.5243 0.0
-12.4008 36.8876 0.0
-12.959 36.3506 0.0
23.1292 -5.26841 0.0
23.1087 -5.45856 0.0
26.191 -9.35751 0.0
33.9822 -9.19929 0.0
35.2806 -8.28336 0.0
-38.7148 0.172468 0.0
-36.1199 -0.64899 0.0
-34.3241 3.23757 0.0
-38.3514 6.97317 0.0
-40.3184 8.72146 0.0
-0.136688 21.5598 0.0
-2.64161 15.5916 0.0
-2.24312 13.9574 0.0
1.10853 15.4844 0.0
3.63971 17.7317 0.0
-28.6054 49.9329 0.0
-28.7337 49.2704 0.0
-24.0978 49.5721 0.0
-20.7096 52.2701 0.0
-20.7299 53.2715 0.0
-25.4554 54.0295 0.0
62.9596 4.77776 0.0
62.8602 5.07108 0.0
57.496 0.629099 0.0
57.5516 -4.96054 0.0
61.4264 -1.79992 0.0
4.82935 40.8215 0.0
5.42212 40.7525 0.0
6.10275 42.337 0.0
8.1588 47.862 0.0
3.96038 51.9815 0.0
3.05001 48.9099 0.0
-39.0847 38.0286 0.0
-37.0966 38.3156 0.0
-35.521 41.4988 0.0
-36.3949 44.7884 0.0
-36.9823 44.8103 0.0
-40.8963 42.3064 0.0
24.9041 48.0439 0.0
25.1918 50.4987 0.0
20.3513 55.9101 0.0
18.9759 54.8721 0.0
18.8184 54.5008 0.0
19.8998 49.9765 0.0
23.7624 48.4958 0.0
0.277646 -43.7775 0.0
-0.566157 -43.2843 0.0
-2.21144 -43.8392 0.0
-4.0102 -46.4951 0.0
-3.31873 -50.1949 0.0
-0.0990691 -50.5146 0.0
26.4308 -32.6068 0.0
33.6386 -28.9318 0.0
34.0404 -26.0873 0.0
27.4211 -27.4629 0.0
27.0109 -27.6569 0.0
24.8868 -30.8898 0.0
26.199 -32.5346 0.0
26.3835 -32.5997 0.0
-28.5022 -12.2 0.0
-28.5849 -12.5478 0.0
-27.5188 -14.37 0.0
-23.9218 -14.4267 0.0
-21.0021 -13.741 0.0
-21.2493 -10.8684 0.0
1.56598 34.5423 0.0
4.1929 34.0516 0.0
6.60263 35.824 0.0
6.91415 38.1588 0.0
6.77507 38.4556 0.0
5.33333 39.7705 0.0
4.74056 39.8395 0.0
3.67916 39.628 0.0
52.5001 -28.2341 0.0
52.9152 -26.9148 0.0
49.2735 -22.4637 0.0
45.5819 -23.9535 0.0
45.3954 -24.9042 0.0
56.5428 1.71778 0.0
56.1635 6.88626 0.0
55.8279 6.89428 0.0
52.8865 6.1358 0.0
52.506 -2.42593 0.0
-17.2593 57.1417 0.0
-19.4905 53.9923 0.0
-10.6896 54.5023 0.0
-10.3345 55.4256 0.0
18.885 43.6946 0.0
20.0753 41.1587 0.0
23.4836 44.2864 0.0
25.3876 46.4623 0.0
24.9262 47.3392 0.0
23.7845 47.7912 0.0
31.3473 -18.1253 0.0
32.1731 -18.5516 0.0
42.2529 -13.6581 0.0
42.2565 -13.2047 0.0
42.0092 -11.3484 0.0
41.2963 -11.1919 0.0
37.2128 -13.7447 0.0
-28.5351 44.1552 0.0
-29.9363 42.7741 0.0
-29.513 41.8372 0.0
-25.6119 40.397 0.0
-24.502 41.055 0.0
-24.1297 41.4726 0.0
-22.4433 45.6688 0.0
1.8865 54.6444 0.0
2.41299 54.5578 0.0
3.46085 61.3528 0.0
2.22435 62.2971 0.0
1.77006 62.349 0.0
-0.436121 57.6282 0.0
-49.5947 -32.5641 0.0
-46.3691 -35.0179 0.0
-44.3476 -34.5483 0.0
-43.4335 -34.077 0.0
-43.8269 -31.6684 0.0
-44.9185 -30.0394 0.0
48.843 3.15832 0.0
48.6038 1.38208 0.0
50.7433 -5.16308 0.0
51.5006 -4.88198 0.0
52.1461 -2.59453 0.0
52.5266 5.9672 0.0
50.6176 6.64958 0.0
29.0158 -19.0259 0.0
25.4622 -21.185 0.0
26.4832 -26.506 0.0
26.9298 -26.9714 0.0
27.3401 -26.7774 0.0
32.7098 -20.5541 0.0
31.2567 -19.3087 0.0
30.4309 -18.8824 0.0
-21.6458 -7.69035 0.0
-21.6236 -7.31343 0.0
-28.8251 -4.4705 0.0
-30.299 -4.97444 0.0
-28.5858 -9.0283 0.0
18.3485 54.3593 0.0
16.6686 53.9053 0.0
14.5244 47.5765 0.0
14.6186 47.4795 0.0
15.6825 46.8982 0.0
17.6622 47.3525 0.0
19.4299 49.835 0.0
-39.3857 -24.5136 0.0
-38.7229 -25.4204 0.0
-31.0707 -28.9444 0.0
-30.6688 -27.8016 0.0
-30.7066 -27.3843 0.0
-37.0472 -23.2039 0.0
-38.5397 -23.1446 0.0
-39.2656 -23.5511 0.0
1.89657 -14.7302 0.0
2.09046 -17.2155 0.0
4.58354 -24.7576 0.0
6.57165 -22.7596 0.0
6.77832 -18.4485 0.0
12.7867 -9.16217 0.0
11.7246 -12.9614 0.0
14.3483 -14.7291 0.0
15.473 -14.8053 0.0
18.2347 -9.85155 0.0
-21.3311 -2.69719 0.0
-22.7059 2.43436 0.0
-28.1132 1.11574 0.0
-26.1284 -2.22883 0.0
-21.7549 -33.7466 0.0
-16.5271 -36.8144 0.0
-13.4031 -34.0418 0.0
-13.5074 -31.2537 0.0
-15.3911 -30.2275 0.0
10.2062 -22.1159 0.0
13.5015 -22.5772 0.0
17.3752 -21.7958 0.0
16.8759 -18.1104 0.0
16.3243 -16.4049 0.0
15.4384 -15.5906 0.0
14.3137 -15.5144 0.0
12.6672 -18.1238 0.0
-1.8204 34.598 0.0
1.14888 34.5676 0.0
3.26207 39.6532 0.0
-0.665882 39.3703 0.0
-1.23469 38.6122 0.0
-2.41216 35.2848 0.0
-16.0195 -10.5544 0.0
-16.1176 -5.85393 0.0
-16.1883 -4.85327 0.0
-16.5508 -4.25678 0.0
-19.9076 -4.13878 0.0
-20.7702 -7.32065 0.0
-20.7924 -7.69758 0.0
-20.5978 -8.27202 0.0
14.7436 -39.5141 0.0
14.7374 -40.0092 0.0
17.1102 -44.2809 0.0
18.8792 -43.295 0.0
19.1525 -36.9378 0.0
18.8209 -36.1612 0.0
17.4517 -18.1144 0.0
17.951 -21.7998 0.0
19.1201 -22.7084 0.0
21.7754 -21.1353 0.0
23.3305 -17.0106 0.0
57.0101 0.278251 0.0
56.6078 1.07367 0.0
52.571 -3.07004 0.0
51.9255 -5.35749 0.0
54.7576 -6.61577 0.0
56.1492 -7.1938 0.0
57.0658 -5.31139 0.0
35.4445 22.0647 0.0
34.8064 22.0322 0.0
35.8454 13.7788 0.0
37.9319 14.418 0.0
39.9849 17.7183 0.0
38.8905 18.907 0.0
-0.744838 -18.083 0.0
1.91665 -25.5343 0.0
4.16057 -25.3395 0.0
4.3161 -24.9403 0.0
1.82302 -17.3982 0.0
-16.1165 -39.3784 0.0
-9.77921 -42.2156 0.0
-10.1828 -37.2615 0.0
-11.3589 -35.6177 0.0
-13.0003 -34.5254 0.0
-16.1243 -37.298 0.0
-21.6453 34.9769 0.0
-20.1496 35.4264 0.0
-18.0667 42.3145 0.0
-23.6213 41.0803 0.0
-23.9935 40.6626 0.0
0.830413 -33.6609 0.0
5.44897 -34.1039 0.0
5.5812 -31.0405 0.0
5.50922 -27.8042 0.0
4.9779 -27.2732 0.0
-43.2532 -2.27998 0.0
-43.2283 -2.62959 0.0
-37.5402 -5.97413 0.0
-36.1456 -2.9385 0.0
-35.9564 -1.90323 0.0
-36.306 -1.25066 0.0
-38.9008 -0.429202 0.0
-42.503 -0.487249 0.0
-6.01953 1.8678 0.0
-8.53241 0.0459867 0.0
-2.25419 -6.25962 0.0
-3.65451 -0.424978 0.0
-4.023 0.427026 0.0
35.5383 0.466675 0.0
37.5758 2.20119 0.0
36.9205 6.66353 0.0
35.6824 7.33135 0.0
33.3247 5.45098 0.0
-11.7543 -46.2915 0.0
-11.1807 -46.6648 0.0
-6.68004 -45.436 0.0
-9.66254 -42.7488 0.0
-15.9999 -39.9116 0.0
-16.3092 -40.5214 0.0
-40.4068 9.36148 0.0
-38.4398 7.61319 0.0
-34.0795 8.59331 0.0
-37.1791 10.5876 0.0
-41.2131 12.756 0.0
-41.1458 10.5039 0.0
-1.01799 7.44286 0.0
-0.9795 8.39103 0.0
-3.51606 11.1815 0.0
-7.35989 9.01475 0.0
-7.30407 7.90532 0.0
-6.29024 5.38898 0.0
-23.0036 2.8675 0.0
-22.8921 3.48093 0.0
-23.2921 4.17026 0.0
-24.7554 5.19297 0.0
-30.0814 6.89977 0.0
-30.4302 6.5578 0.0
-31.1966 4.54931 0.0
-29.6585 2.44135 0.0
-28.4109 1.54889 0.0
-44.8671 5.17137 0.0
-46.7286 5.6779 0.0
-50.9376 2.36539 0.0
-43.6357 0.598423 0.0
-30.1362 -42.1861 0.0
-29.8833 -41.4819 0.0
-33.4592 -32.5676 0.0
-33.7379 -32.5566 0.0
-36.7773 -36.6412 0.0
-32.0364 -41.2892 0.0
-19.4775 53.7346 0.0
-19.7677 53.3853 0.0
-19.7473 52.384 0.0
-19.3431 51.8949 0.0
-12.9961 50.9999 0.0
-11.1768 52.0421 0.0
-10.6766 54.2447 0.0
-22.7838 -33.1935 0.0
-22.075 -33.375 0.0
-15.7112 -29.8559 0.0
-19.0171 -26.3157 0.0
-21.6484 -27.2749 0.0
-22.9787 -30.4048 0.0
17.24 13.5765 0.0
17.31 11.4723 0.0
18.9737 10.0516 0.0
23.8599 20.0541 0.0
23.6221 20.385 0.0
22.2194 21.7622 0.0
21.7883 21.7039 0.0
10.267 -44.5076 0.0
10.6136 -44.7424 0.0
14.1285 -39.9759 0.0
[...]
<CellData Scalars="cell variable 4" Vectors="cell vector">
<DataArray type="Float64" NumberOfComponents="3" Name="cell vector" format="ascii">
0 0 0
0 0 0
0 0 0
0 0 0
0 0 0
0 0 0
0 0 0
0 0 0
0 0 0
0 0 0
0 0 0
0 0 0
0 0 0
0 0 0
0 0 0
0 0 0
0 0 0
0 0 0
0 0 0
0 0 0
0 0 0
0 0 0
0 0 0
0 0 0
0 0 0
0 0 0
0 0 0
0 0 0
0 0 0
0 0 0
0 0 0
0 0 0
0 0 0
0 0 0
0 0 0
0 0 0
0 0 0
0 0 0
0 0 0
0 0 0
0 0 0
0 0 0
0 0 0
0 0 0
0 0 0
0 0 0
0 0 0
0 0 0
0 0 0
0 0 0
0 0 0
0 0 0
0 0 0
0 0 0
0 0 0
0 0 0
0 0 0
0 0 0
0 0 0
0 0 0
0 0 0
0 0 0
0 0 0
0 0 0
0 0 0
0 0 0
0 0 0
0 0 0
0 0 0
0 0 0
0 0 0
0 0 0
0 0 0
0 0 0
0 0 0
0 0 0
0 0 0
0 0 0
0 0 0
0 0 0
0 0 0
0 0 0
0 0 0
0 0 0
0 0 0
0 0 0
0 0 0
0 0 0
0 0 0
0 0 0
0 0 0
0 0 0
0 0 0
0 0 0
0 0 0
0 0 0
0 0 0
0 0 0
0 0 0
0 0 0
0 0 0
0 0 0
0 0 0
0 0 0
0 0 0
0 0 0
0 0 0
0 0 0
0 0 0
0 0 0
0 0 0
0 0 0
0 0 0
0 0 0
0 0 0
0 0 0
0 0 0
0 0 0
0 0 0
0 0 0
0 0 0
0 0 0
0 0 0
0 0 0
0 0 0
0 0 0
0 0 0
0 0 0
0 0 0
0 0 0
0 0 0
0 0 0
0 0 0
0 0 0
0 0 0
0 0 0
0 0 0
0 0 0
0 0 0
0 0 0
0 0 0
0 0 0
0 0 0
0 0 0
0 0 0
0 0 0
0 0 0
0 0 0
0 0 0
0 0 0
0 0 0
0 0 0
0 0 0
0 0 0
0 0 0
0 0 0
0 0 0
0 0 0
0 0 0
0 0 0
0 0 0
0 0 0
0 0 0
0 0 0
0 0 0
0 0 0
0 0 0
0 0 0
0 0 0
0 0 0
0 0 0
0 0 0
0 0 0
0 0 0
0 0 0
0 0 0
0 0 0
0 0 0
0 0 0
0 0 0
0 0 0
0 0 0
0 0 0
0 0 0
0 0 0
0 0 0
0 0 0
0 0 0
0 0 0
0 0 0
0 0 0
0 0 0
0 0 0
0 0 0
0 0 0
0 0 0
0 0 0
0 0 0
0 0 0
0 0 0
0 0 0
0 0 0
0 0 0
0 0 0
0 0 0
0 0 0
0 0 0
0 0 0
0 0 0
0 0 0
0 0 0
0 0 0
0 0 0
0 0 0
0 0 0
0 0 0
0 0 0
0 0 0
0 0 0
0 0 0
0 0 0
0 0 0
0 0 0
0 0 0
0 0 0
0 0 0
0 0 0
0 0 0
0 0 0
0 0 0
0 0 0
0 0 0
0 0 0
0 0 0
0 0 0
0 0 0
0 0 0
0 0 0
0 0 0
0 0 0
0 0 0
0 0 0
0 0 0
0 0 0
0 0 0
0 0 0
0 0 0
0 0 0
0 0 0
0 0 0
0 0 0
0 0 0
0 0 0
0 0 0
0 0 0
0 0 0
0 0 0
0 0 0
0 0 0
0 0 0
0 0 0
0 0 0
0 0 0
0 0 0
0 0 0
0 0 0
0 0 0
0 0 0
0 0 0
0 0 0
0 0 0
0 0 0
0 0 0
0 0 0
0 0 0
0 0 0
0 0 0
0 0 0
0 0 0
0 0 0
0 0 0
0 0 0
0 0 0
0 0 0
0 0 0
0 0 0
0 0 0
0 0 0
0 0 0
0 0 0
0 0 0
0 0 0
0 0 0
0 0 0
0 0 0
0 0 0
0 0 0
0 0 0
0 0 0
0 0 0
0 0 0
0 0 0
0 0 0
0 0 0
0 0 0
0 0 0
0 0 0
0 0 0
0 0 0
0 0 0
0 0 0
0 0 0
0 0 0
0 0 0
0 0 0
0 0 0
0 0 0
0 0 0
0 0 0
0 0 0
0 0 0
0 0 0
0 0 0
0 0 0
0 0 0
0 0 0
0 0 0
0 0 0
0 0 0
0 0 0
0 0 0
0 0 0
0 0 0
0 0 0
0 0 0
0 0 0
0 0 0
0 0 0
0 0 0
0 0 0
0 0 0
0 0 0
0 0 0
0 0 0
0 0 0
0 0 0
0 0 0
0 0 0
0 0 0
0 0 0
0 0 0
0 0 0
0 0 0
0 0 0
0 0 0
0 0 0
0 0 0
0 0 0
0 0 0
0 0 0
0 0 0
0 0 0
0 0 0
0 0 0
0 0 0
0 0 0
0 0 0
0 0 0
0 0 0
0 0 0
0 0 0
0 0 0
0 0 0
0 0 0
0 0 0
0 0 0
0 0 0
0 0 0
0 0 0
0 0 0
0 0 0
0 0 0
0 0 0
0 0 0
0 0 0
0 0 0
0 0 0
0 0 0
0 0 0
0 0 0
0 0 0
0 0 0
0 0 0
0 0 0
0 0 0
</DataArray>
<DataArray type="Float64" Name="cell vector length" format="ascii">
0 0 0 0 0 0 0 0 0 0 0 0 0 0 0 0 0 0 0 0 0 0 0 0 0 0 0 0 0 0 0 0 0 0 0 0 0 0 0 0 0 0 0 0 0 0 0 0 0 0 0 0 0 0 0 0 0 0 0 0 0 0 0 0 0 0 0 0 0 0 0 0 0 0 0 0 0 0 0 0 0 0 0 0 0 0 0 0 0 0 0 0 0 0 0 0 0 0 0 0 0 0 0 0 0 0 0 0 0 0 0 0 0 0 0 0 0 0 0 0 0 0 0 0 0 0 0 0 0 0 0 0 0 0 0 0 0 0 0 0 0 0 0 0 0 0 0 0 0 0 0 0 0 0 0 0 0 0 0 0 0 0 0 0 0 0 0 0 0 0 0 0 0 0 0 0 0 0 0 0 0 0 0 0 0 0 0 0 0 0 0 0 0 0 0 0 0 0 0 0 0 0 0 0 0 0 0 0 0 0 0 0 0 0 0 0 0 0 0 0 0 0 0 0 0 0 0 0 0 0 0 0 0 0 0 0 0 0 0 0 0 0 0 0 0 0 0 0 0 0 0 0 0 0 0 0 0 0 0 0 0 0 0 0 0 0 0 0 0 0 0 0 0 0 0 0 0 0 0 0 0 0 0 0 0 0 0 0 0 0 0 0 0 0 0 0 0 0 0 0 0 0 0 0 0 0 0 0 0 0 0 0 0 0 0 0 0 0 0 0 0 0 0 0 0 0 0 0 0 0 0 0 0 0 0 0 0 0 0 0 0 0 0 0 0 0 0 0 0 0 0 0 0 0 0 0 0 0 0 0 0 0 0 0 0 0 0 0 0 0 0 0 0 0 0 0 0 0 0 0 0 0 0 0 0 0 0 0 0 0 0 0 0 0 0 
</DataArray>
<DataArray type="Float64" Name="cell variable 4" format="ascii">
1.11547 1.06245 1.12037 1.07467 0.90618 0.94865 1.11547 0.94865 1.11547 0.90618 1.14226 1.04461 1.11547 1.04461 0.912892 0.919422 1.07467 1.10185 1.10185 0.94865 0.919422 1.12037 1.06245 1.00681 1.07467 1.10185 1.00681 1.14226 0.99432 0.912892 0.980966 0.99432 0.980966 1.04461 1.11547 1.12037 1.07467 0.912892 0.912892 0.763876 0.980966 1.11547 0.99432 0.980966 0.919422 1.10185 1.11547 1.12037 0.980966 0.919422 1.11547 1.11547 1.12037 1.04461 1.11547 1.07467 1.12037 0.94865 1.11547 0.912892 1.10185 1.11547 1.04461 1.07467 1.04461 0.919422 1.12037 1.10185 1.04461 1.00681 1.12037 1.12037 1.00681 0.90618 0.763876 1.04461 1.14226 0.94865 1.00681 1.11547 1.04461 0.919422 1.11547 0.848855 1.11547 1.11547 1.04461 1.10185 1.14226 1.07467 0.94865 0.980966 0.8063 1.04461 0.980966 0.980966 1.00681 0.919422 1.12037 1.11547 1.04461 1.04461 0.919422 0.94865 1.06245 0.919422 0.99432 1.12037 1.04461 0.912892 1.00681 1.00681 1.10185 0.848855 1.00681 1.14226 1.14226 1.07467 1.11547 1.14226 1.14226 1.07467 1.00681 0.94865 1.06245 0.657465 0.789941 1.07467 0.99432 1.04461 1.11547 1.11547 1.00681 1.07467 1.06245 1.06245 1.06245 0.99432 1.04461 0.919422 0.90618 1.00681 1.12037 0.763876 0.90618 0.99432 1.07467 1.07467 0.980966 0.848855 1.04461 1.14226 0.919422 0.919422 1.00681 0.789941 1.10185 1.12037 1.12037 1.04461 1.07467 1.00681 1.04461 1.06245 1.00681 1.14226 1.04461 1.11547 1.11547 1.10185 1.10185 0.919422 1.12037 0.919422 1.00681 0.94865 1.00681 1.00681 1.12037 0.919422 1.12037 1.00681 1.00681 1.11547 1.00681 0.980966 1.06245 1.11547 1.04461 1.06245 1.07467 0.980966 1.07467 0.90618 0.99432 0.919422 0.94865 0.94865 0.8063 0.848855 0.94865 0.90618 1.11547 0.912892 1.12037 1.04461 0.94865 1.04461 1.04461 0.980966 1.07467 1.10185 1.07467 1.06245 0.980966 1.10185 0.94865 1.12037 1.07467 1.07467 1.04461 1.04461 0.980966 1.10185 1.04461 1.06245 1.11547 1.10185 0.912892 0.912892 1.07467 0.90618 0.848855 1.10185 1.04461 0.919422 1.10185 1.10185 0.980966 0.980966 1.10185 0.94865 0.919422 1.11547 0.94865 1.04461 0.90618 1.06245 1.07467 1.07467 1.10185 0.848855 0.980966 1.14226 0.919422 1.12037 1.10185 0.99432 1.06245 1.14226 1.11547 1.14226 1.06245 0.919422 0.94865 1.14226 1.14226 0.912892 1.00681 0.919422 1.11547 0.8063 1.12037 1.04461 1.14226 1.11547 1.00681 0.848855 0.94865 1.11547 1.00681 1.06245 1.10185 1.04461 1.14226 0.912892 1.12037 1.14226 1.10185 1.00681 1.11547 1.14226 0.94865 0.90618 0.980966 1.07467 1.00681 1.12037 1.06245 1.00681 0.919422 1.10185 1.12037 1.10185 0.912892 1.00681 1.11547 1.07467 0.94865 1.06245 0.90618 0.919422 1.12037 1.07467 0.912892 1.07467 1.10185 1.11547 0.980966 1.10185 1.11547 1.12037 1.10185 1.10185 0.919422 0.848855 1.07467 1.14226 1.07467 1.00681 1.04461 1.14226 1.14226 1.11547 1.11547 0.980966 0.90618 0.980966 1.04461 0.919422 0.90618 0.919422 1.00681 0.94865 0.99432 1.06245 0.8063 1.11547 1.11547 1.12037 0.90618 1.12037 1.07467 1.12037 1.00681 0.919422 1.00681 0.90618 0.8063 1.14226 1.12037 1.07467 0.980966 0.94865 0.919422 1.14226 0.980966 1.06245 0.789941 1.11547 0.980966 1.12037 1.00681 1.10185 0.90618 1.04461 1.12037 0.919422 1.10185 1.07467 1.10185 1.11547 1.06245 1.00681 0.912892 0.919422 1.04461 0.90618 1.14226 0.912892 1.07467 1.04461 0.90618 1.07467 1.04461 
</DataArray>
<DataArray type="Float64" Name="cell variable 5" format="ascii">
0.00797274 0.00878122 0.00790366 0.00858434 0.0120314 0.0109898 0.00797274 0.0109898 0.00797274 0.0120314 0.00760594 0.00908091 0.00797274 0.00908091 0.0118572 0.0116913 0.00858434 0.00816951 0.00816951 0.0109898 0.0116913 0.00790366 0.00878122 0.00976872 0.00858434 0.00816951 0.00976872 0.00760594 0.0100133 0.0118572 0.0102849 0.0100133 0.0102849 0.00908091 0.00797274 0.00790366 0.00858434 0.0118572 0.0118572 0.016849 0.0102849 0.00797274 0.0100133 0.0102849 0.0116913 0.00816951 0.00797274 0.00790366 0.0102849 0.0116913 0.00797274 0.00797274 0.00790366 0.00908091 0.00797274 0.00858434 0.00790366 0.0109898 0.00797274 0.0118572 0.00816951 0.00797274 0.00908091 0.00858434 0.00908091 0.0116913 0.00790366 0.00816951 0.00908091 0.00976872 0.00790366 0.00790366 0.00976872 0.0120314 0.016849 0.00908091 0.00760594 0.0109898 0.00976872 0.00797274 0.00908091 0.0116913 0.00797274 0.0136882 0.00797274 0.00797274 0.00908091 0.00816951 0.00760594 0.00858434 0.0109898 0.0102849 0.0151488 0.00908091 0.0102849 0.0102849 0.00976872 0.0116913 0.00790366 0.00797274 0.00908091 0.00908091 0.0116913 0.0109898 0.00878122 0.0116913 0.0100133 0.00790366 0.00908091 0.0118572 0.00976872 0.00976872 0.00816951 0.0136882 0.00976872 0.00760594 0.00760594 0.00858434 0.00797274 0.00760594 0.00760594 0.00858434 0.00976872 0.0109898 0.00878122 0.0226112 0.0157727 0.00858434 0.0100133 0.00908091 0.00797274 0.00797274 0.00976872 0.00858434 0.00878122 0.00878122 0.00878122 0.0100133 0.00908091 0.0116913 0.0120314 0.00976872 0.00790366 0.016849 0.0120314 0.0100133 0.00858434 0.00858434 0.0102849 0.0136882 0.00908091 0.00760594 0.0116913 0.0116913 0.00976872 0.0157727 0.00816951 0.00790366 0.00790366 0.00908091 0.00858434 0.00976872 0.00908091 0.00878122 0.00976872 0.00760594 0.00908091 0.00797274 0.00797274 0.00816951 0.00816951 0.0116913 0.00790366 0.0116913 0.00976872 0.0109898 0.00976872 0.00976872 0.00790366 0.0116913 0.00790366 0.00976872 0.00976872 0.00797274 0.00976872 0.0102849 0.00878122 0.00797274 0.00908091 0.00878122 0.00858434 0.0102849 0.00858434 0.0120314 0.0100133 0.0116913 0.0109898 0.0109898 0.0151488 0.0136882 0.0109898 0.0120314 0.00797274 0.0118572 0.00790366 0.00908091 0.0109898 0.00908091 0.00908091 0.0102849 0.00858434 0.00816951 0.00858434 0.00878122 0.0102849 0.00816951 0.0109898 0.00790366 0.00858434 0.00858434 0.00908091 0.00908091 0.0102849 0.00816951 0.00908091 0.00878122 0.00797274 0.00816951 0.0118572 0.0118572 0.00858434 0.0120314 0.0136882 0.00816951 0.00908091 0.0116913 0.00816951 0.00816951 0.0102849 0.0102849 0.00816951 0.0109898 0.0116913 0.00797274 0.0109898 0.00908091 0.0120314 0.00878122 0.00858434 0.00858434 0.00816951 0.0136882 0.0102849 0.00760594 0.0116913 0.00790366 0.00816951 0.0100133 0.00878122 0.00760594 0.00797274 0.00760594 0.00878122 0.0116913 0.0109898 0.00760594 0.00760594 0.0118572 0.00976872 0.0116913 0.00797274 0.0151488 0.00790366 0.00908091 0.00760594 0.00797274 0.00976872 0.0136882 0.0109898 0.00797274 0.00976872 0.00878122 0.00816951 0.00908091 0.00760594 0.0118572 0.00790366 0.00760594 0.00816951 0.00976872 0.00797274 0.00760594 0.0109898 0.0120314 0.0102849 0.00858434 0.00976872 0.00790366 0.00878122 0.00976872 0.0116913 0.00816951 0.00790366 0.00816951 0.0118572 0.00976872 0.00797274 0.00858434 0.0109898 0.00878122 0.0120314 0.0116913 0.00790366 0.00858434 0.0118572 0.00858434 0.00816951 0.00797274 0.0102849 0.00816951 0.00797274 0.00790366 0.00816951 0.00816951 0.0116913 0.0136882 0.00858434 0.00760594 0.00858434 0.00976872 0.00908091 0.00760594 0.00760594 0.00797274 0.00797274 0.0102849 0.0120314 0.0102849 0.00908091 0.0116913 0.0120314 0.0116913 0.00976872 0.0109898 0.0100133 0.00878122 0.0151488 0.00797274 0.00797274 0.00790366 0.0120314 0.00790366 0.00858434 0.00790366 0.00976872 0.0116913 0.00976872 0.0120314 0.0151488 0.00760594 0.00790366 0.00858434 0.0102849 0.0109898 0.0116913 0.00760594 0.0102849 0.00878122 0.0157727 0.00797274 0.0102849 0.00790366 0.00976872 0.00816951 0.0120314 0.00908091 0.00790366 0.0116913 0.00816951 0.00858434 0.00816951 0.00797274 0.00878122 0.00976872 0.0118572 0.0116913 0.00908091 0.0120314 0.00760594 0.0118572 0.00858434 0.00908091 0.0120314 0.00858434 0.00908091 
</DataArray>
<DataArray type="Float64" Name="cell variable 6" format="ascii">
4.32387e-06 5.74138e-06 4.21468e-06 5.3719e-06 1.4406e-05 1.10661e-05 4.32387e-06 1.10661e-05 4.32387e-06 1.4406e-05 3.76475e-06 6.33494e-06 4.32387e-06 6.33494e-06 1.38076e-05 1.32528e-05 5.3719e-06 4.64493e-06 4.64493e-06 1.10661e-05 1.32528e-05 4.21468e-06 5.74138e-06 7.8448e-06 5.3719e-06 4.64493e-06 7.8448e-06 3.76475e-06 8.43313e-06 1.38076e-05 9.11938e-06 8.43313e-06 9.11938e-06 6.33494e-06 4.32387e-06 4.21468e-06 5.3719e-06 1.38076e-05 1.38076e-05 3.81646e-05 9.11938e-06 4.32387e-06 8.43313e-06 9.11938e-06 1.32528e-05 4.64493e-06 4.32387e-06 4.21468e-06 9.11938e-06 1.32528e-05 4.32387e-06 4.32387e-06 4.21468e-06 6.33494e-06 4.32387e-06 5.3719e-06 4.21468e-06 1.10661e-05 4.32387e-06 1.38076e-05 4.64493e-06 4.32387e-06 6.33494e-06 5.3719e-06 6.33494e-06 1.32528e-05 4.21468e-06 4.64493e-06 6.33494e-06 7.8448e-06 4.21468e-06 4.21468e-06 7.8448e-06 1.4406e-05 3.81646e-05 6.33494e-06 3.76475e-06 1.10661e-05 7.8448e-06 4.32387e-06 6.33494e-06 1.32528e-05 4.32387e-06 2.09522e-05 4.32387e-06 4.32387e-06 6.33494e-06 4.64493e-06 3.76475e-06 5.3719e-06 1.10661e-05 9.11938e-06 2.80904e-05 6.33494e-06 9.11938e-06 9.11938e-06 7.8448e-06 1.32528e-05 4.21468e-06 4.32387e-06 6.33494e-06 6.33494e-06 1.32528e-05 1.10661e-05 5.74138e-06 1.32528e-05 8.43313e-06 4.21468e-06 6.33494e-06 1.38076e-05 7.8448e-06 7.8448e-06 4.64493e-06 2.09522e-05 7.8448e-06 3.76475e-06 3.76475e-06 5.3719e-06 4.32387e-06 3.76475e-06 3.76475e-06 5.3719e-06 7.8448e-06 1.10661e-05 5.74138e-06 8.84138e-05 3.156e-05 5.3719e-06 8.43313e-06 6.33494e-06 4.32387e-06 4.32387e-06 7.8448e-06 5.3719e-06 5.74138e-06 5.74138e-06 5.74138e-06 8.43313e-06 6.33494e-06 1.32528e-05 1.4406e-05 7.8448e-06 4.21468e-06 3.81646e-05 1.4406e-05 8.43313e-06 5.3719e-06 5.3719e-06 9.11938e-06 2.09522e-05 6.33494e-06 3.76475e-06 1.32528e-05 1.32528e-05 7.8448e-06 3.156e-05 4.64493e-06 4.21468e-06 4.21468e-06 6.33494e-06 5.3719e-06 7.8448e-06 6.33494e-06 5.74138e-06 7.8448e-06 3.76475e-06 6.33494e-06 4.32387e-06 4.32387e-06 4.64493e-06 4.64493e-06 1.32528e-05 4.21468e-06 1.32528e-05 7.8448e-06 1.10661e-05 7.8448e-06 7.8448e-06 4.21468e-06 1.32528e-05 4.21468e-06 7.8448e-06 7.8448e-06 4.32387e-06 7.8448e-06 9.11938e-06 5.74138e-06 4.32387e-06 6.33494e-06 5.74138e-06 5.3719e-06 9.11938e-06 5.3719e-06 1.4406e-05 8.43313e-06 1.32528e-05 1.10661e-05 1.10661e-05 2.80904e-05 2.09522e-05 1.10661e-05 1.4406e-05 4.32387e-06 1.38076e-05 4.21468e-06 6.33494e-06 1.10661e-05 6.33494e-06 6.33494e-06 9.11938e-06 5.3719e-06 4.64493e-06 5.3719e-06 5.74138e-06 9.11938e-06 4.64493e-06 1.10661e-05 4.21468e-06 5.3719e-06 5.3719e-06 6.33494e-06 6.33494e-06 9.11938e-06 4.64493e-06 6.33494e-06 5.74138e-06 4.32387e-06 4.64493e-06 1.38076e-05 1.38076e-05 5.3719e-06 1.4406e-05 2.09522e-05 4.64493e-06 6.33494e-06 1.32528e-05 4.64493e-06 4.64493e-06 9.11938e-06 9.11938e-06 4.64493e-06 1.10661e-05 1.32528e-05 4.32387e-06 1.10661e-05 6.33494e-06 1.4406e-05 5.74138e-06 5.3719e-06 5.3719e-06 4.64493e-06 2.09522e-05 9.11938e-06 3.76475e-06 1.32528e-05 4.21468e-06 4.64493e-06 8.43313e-06 5.74138e-06 3.76475e-06 4.32387e-06 3.76475e-06 5.74138e-06 1.32528e-05 1.10661e-05 3.76475e-06 3.76475e-06 1.38076e-05 7.8448e-06 1.32528e-05 4.32387e-06 2.80904e-05 4.21468e-06 6.33494e-06 3.76475e-06 4.32387e-06 7.8448e-06 2.09522e-05 1.10661e-05 4.32387e-06 7.8448e-06 5.74138e-06 4.64493e-06 6.33494e-06 3.76475e-06 1.38076e-05 4.21468e-06 3.76475e-06 4.64493e-06 7.8448e-06 4.32387e-06 3.76475e-06 1.10661e-05 1.4406e-05 9.11938e-06 5.3719e-06 7.8448e-06 4.21468e-06 5.74138e-06 7.8448e-06 1.32528e-05 4.64493e-06 4.21468e-06 4.64493e-06 1.38076e-05 7.8448e-06 4.32387e-06 5.3719e-06 1.10661e-05 5.74138e-06 1.4406e-05 1.32528e-05 4.21468e-06 5.3719e-06 1.38076e-05 5.3719e-06 4.64493e-06 4.32387e-06 9.11938e-06 4.64493e-06 4.32387e-06 4.21468e-06 4.64493e-06 4.64493e-06 1.32528e-05 2.09522e-05 5.3719e-06 3.76475e-06 5.3719e-06 7.8448e-06 6.33494e-06 3.76475e-06 3.76475e-06 4.32387e-06 4.32387e-06 9.11938e-06 1.4406e-05 9.11938e-06 6.33494e-06 1.32528e-05 1.4406e-05 1.32528e-05 7.8448e-06 1.10661e-05 8.43313e-06 5.74138e-06 2.80904e-05 4.32387e-06 4.32387e-06 4.21468e-06 1.4406e-05 4.21468e-06 5.3719e-06 4.21468e-06 7.8448e-06 1.32528e-05 7.8448e-06 1.4406e-05 2.80904e-05 3.76475e-06 4.21468e-06 5.3719e-06 9.11938e-06 1.10661e-05 1.32528e-05 3.76475e-06 9.11938e-06 5.74138e-06 3.156e-05 4.32387e-06 9.11938e-06 4.21468e-06 7.8448e-06 4.64493e-06 1.4406e-05 6.33494e-06 4.21468e-06 1.32528e-05 4.64493e-06 5.3719e-06 4.64493e-06 4.32387e-06 5.74138e-06 7.8448e-06 1.38076e-05 1.32528e-05 6.33494e-06 1.4406e-05 3.76475e-06 1.38076e-05 5.3719e-06 6.33494e-06 1.4406e-05 5.3719e-06 6.33494e-06 
</DataArray>
<DataArray type="Float64" Name="cell variable 7" format="ascii">
0.0788486 0.0886341 0.0779382 0.0863829 0.118245 0.109939 0.0788486 0.109939 0.0788486 0.118245 0.0738515 0.091923 0.0788486 0.091923 0.116913 0.115625 0.0863829 0.0813708 0.0813708 0.109939 0.115625 0.0779382 0.0886341 0.0989326 0.0863829 0.0813708 0.0989326 0.0738515 0.10127 0.116913 0.103782 0.10127 0.103782 0.091923 0.0788486 0.0779382 0.0863829 0.116913 0.116913 0.148901 0.103782 0.0788486 0.10127 0.103782 0.115625 0.0813708 0.0788486 0.0779382 0.103782 0.115625 0.0788486 0.0788486 0.0779382 0.091923 0.0788486 0.0863829 0.0779382 0.109939 0.0788486 0.116913 0.0813708 0.0788486 0.091923 0.0863829 0.091923 0.115625 0.0779382 0.0813708 0.091923 0.0989326 0.0779382 0.0779382 0.0989326 0.118245 0.148901 0.091923 0.0738515 0.109939 0.0989326 0.0788486 0.091923 0.115625 0.0788486 0.129973 0.0788486 0.0788486 0.091923 0.0813708 0.0738515 0.0863829 0.109939 0.103782 0.139181 0.091923 0.103782 0.103782 0.0989326 0.115625 0.0779382 0.0788486 0.091923 0.091923 0.115625 0.109939 0.0886341 0.115625 0.10127 0.0779382 0.091923 0.116913 0.0989326 0.0989326 0.0813708 0.129973 0.0989326 0.0738515 0.0738515 0.0863829 0.0788486 0.0738515 0.0738515 0.0863829 0.0989326 0.109939 0.0886341 0.176526 0.142859 0.0863829 0.10127 0.091923 0.0788486 0.0788486 0.0989326 0.0863829 0.0886341 0.0886341 0.0886341 0.10127 0.091923 0.115625 0.118245 0.0989326 0.0779382 0.148901 0.118245 0.10127 0.0863829 0.0863829 0.103782 0.129973 0.091923 0.0738515 0.115625 0.115625 0.0989326 0.142859 0.0813708 0.0779382 0.0779382 0.091923 0.0863829 0.0989326 0.091923 0.0886341 0.0989326 0.0738515 0.091923 0.0788486 0.0788486 0.0813708 0.0813708 0.115625 0.0779382 0.115625 0.0989326 0.109939 0.0989326 0.0989326 0.0779382 0.115625 0.0779382 0.0989326 0.0989326 0.0788486 0.0989326 0.103782 0.0886341 0.0788486 0.091923 0.0886341 0.0863829 0.103782 0.0863829 0.118245 0.10127 0.115625 0.109939 0.109939 0.139181 0.129973 0.109939 0.118245 0.0788486 0.116913 0.0779382 0.091923 0.109939 0.091923 0.091923 0.103782 0.0863829 0.0813708 0.0863829 0.0886341 0.103782 0.0813708 0.109939 0.0779382 0.0863829 0.0863829 0.091923 0.091923 0.103782 0.0813708 0.091923 0.0886341 0.0788486 0.0813708 0.116913 0.116913 0.0863829 0.118245 0.129973 0.0813708 0.091923 0.115625 0.0813708 0.0813708 0.103782 0.103782 0.0813708 0.109939 0.115625 0.0788486 0.109939 0.091923 0.118245 0.0886341 0.0863829 0.0863829 0.0813708 0.129973 0.103782 0.0738515 0.115625 0.0779382 0.0813708 0.10127 0.0886341 0.0738515 0.0788486 0.0738515 0.0886341 0.115625 0.109939 0.0738515 0.0738515 0.116913 0.0989326 0.115625 0.0788486 0.139181 0.0779382 0.091923 0.0738515 0.0788486 0.0989326 0.129973 0.109939 0.0788486 0.0989326 0.0886341 0.0813708 0.091923 0.0738515 0.116913 0.0779382 0.0738515 0.0813708 0.0989326 0.0788486 0.0738515 0.109939 0.118245 0.103782 0.0863829 0.0989326 0.0779382 0.0886341 0.0989326 0.115625 0.0813708 0.0779382 0.0813708 0.116913 0.0989326 0.0788486 0.0863829 0.109939 0.0886341 0.118245 0.115625 0.0779382 0.0863829 0.116913 0.0863829 0.0813708 0.0788486 0.103782 0.0813708 0.0788486 0.0779382 0.0813708 0.0813708 0.115625 0.129973 0.0863829 0.0738515 0.0863829 0.0989326 0.091923 0.0738515 0.0738515 0.0788486 0.0788486 0.103782 0.118245 0.103782 0.091923 0.115625 0.118245 0.115625 0.0989326 0.109939 0.10127 0.0886341 0.139181 0.0788486 0.0788486 0.0779382 0.118245 0.0779382 0.0863829 0.0779382 0.0989326 0.115625 0.0989326 0.118245 0.139181 0.0738515 0.0779382 0.0863829 0.103782 0.109939 0.115625 0.0738515 0.103782 0.0886341 0.142859 0.0788486 0.103782 0.0779382 0.0989326 0.0813708 0.118245 0.091923 0.0779382 0.115625 0.0813708 0.0863829 0.0813708 0.0788486 0.0886341 0.0989326 0.116913 0.115625 0.091923 0.118245 0.0738515 0.116913 0.0863829 0.091923 0.118245 0.0863829 0.091923 
</DataArray>
<DataArray type="Float64" Name="cell variable 8" format="ascii">