<VTKFile type="UnstructuredGrid" version="0.1">
<UnstructuredGrid>
<Piece  NumberOfPoints="    3368" NumberOfCells="    2471">
<Points>
<DataArray type="Float64" NumberOfComponents="3" format="ascii">
10.9465 28.3681 0 
13.5353 11.7308 0 
-15.3314 -18.1172 0 
28.9999 -45.9291 0 
-59.9674 9.26854 0 
-18.414 1.05906 0 
-44.6196 -35.6569 0 
47.6971 19.7238 0 
45.3158 -3.08406 0 
2.925 -42.331 0 
22.2605 -1.68194 0 
-4.64666 -54.7801 0 
0.135638 -50.7778 0 
43.8242 -39.614 0 
23.4901 22.9377 0 
50.9701 24.1946 0 
-34.4863 29.7459 0 
-10.6192 28.7413 0 
-40.473 20.7373 0 
51.2964 -30.0169 0 
-6.15833 45.128 0 
30.8386 13.3868 0 
44.4621 0.461102 0 
9.74084 1.18897 0 
2.31775 -50.3337 0 
-19.2413 18.713 0 
-13.269 -18.74 0 
-23.1739 49.8158 0 
13.6967 -15.8763 0 
-1.20496 -35.8891 0 
2.75649 -30.2755 0 
-27.0547 -31.0784 0 
-47.006 -19.756 0 
-47.1853 -3.25459 0 
-46.2787 -24.1395 0 
-10.9096 -22.6159 0 
-21.4905 56.5959 0 
51.5049 24.4759 0 
-8.58441 7.16624 0 
-34.0624 4.71975 0 
-26.2978 -31.888 0 
-11.7612 -33.4768 0 
-0.69093 -16.7619 0 
-19.4695 -59.7024 0 
51.5771 14.8066 0 
-8.98076 37.4427 0 
-19.7879 -0.861553 0 
45.7322 8.57547 0 
8.48298 34.3417 0 
49.3217 40.1159 0 
4.09646 32.2276 0 
-1.61794 -50.7438 0 
-41.0795 -15.096 0 
31.756 4.42081 0 
-41.4094 -39.0837 0 
5.92596 -54.3671 0 
27.3984 30.4567 0 
35.6116 42.4819 0 
21.089 -43.812 0 
9.97518 -48.6965 0 
-31.7024 36.0327 0 
-57.6765 1.03841 0 
-1.09369 -50.61 0 
62.7547 10.3355 0 
-18.4324 39.8123 0 
-21.7137 -54.1575 0 
38.4645 49.7112 0 
37.996 -29.1914 0 
38.9194 -28.858 0 
-29.5322 19.6089 0 
23.3973 -6.46497 0 
-55.9214 -13.0124 0 
4.68562 -43.4583 0 
57.5828 -20.4707 0 
28.3422 4.7157 0 
30.7433 -4.90275 0 
39.9287 -44.6429 0 
-29.1483 20.5358 0 
-6.57253 -33.805 0 
56.6138 19.1564 0 
-56.194 0.0132203 0 
16.0058 24.7185 0 
-16.8816 -16.908 0 
-31.7369 12.4592 0 
-52.8492 25.988 0 
2.32763 42.9442 0 
50.7265 16.7453 0 
-43.3547 18.5061 0 
-50.5962 34.1046 0 
-60.8747 -15.9585 0 
-34.1543 -19.9735 0 
-25.4291 -52.0122 0 
37.7148 10.1307 0 
12.2754 20.4174 0 
-36.9091 -15.9486 0 
38.6905 35.2079 0 
50.4698 -3.71031 0 
-53.5001 -2.26986 0 
19.2456 49.9457 0 
18.897 -58.065 0 
12.1778 -48.6807 0 
54.8398 -9.01665 0 
-24.062 39.3984 0 
-24.4263 -7.70719 0 
54.2999 -6.24873 0 
-23.0185 -0.654028 0 
24.9885 25.2477 0 
52.4461 -4.58294 0 
28.0381 -50.8952 0 
-31.4493 26.1722 0 
-39.4889 -32.7886 0 
-29.0307 20.6889 0 
46.6402 35.2348 0 
46.0686 -13.5716 0 
27.7057 29.344 0 
-0.397941 -23.5896 0 
-30.6239 36.2961 0 
12.5408 -42.0775 0 
-9.25213 -38.43 0 
63.7134 -8.75106 0 
52.22 11.5662 0 
12.1592 -1.10041 0 
-40.414 21.6309 0 
-1.45779 20.0124 0 
12.6749 -40.1209 0 
-16.8055 47.7715 0 
-27.1236 -36.1823 0 
29.9196 17.4512 0 
8.30805 10.1477 0 
-6.21242 54.4029 0 
-29.0629 -52.444 0 
-37.801 -2.30573 0 
18.5631 7.39218 0 
-20.5021 -31.4835 0 
-17.3855 48.8805 0 
-35.6896 45.6367 0 
56.086 -10.5319 0 
29.1808 -41.0617 0 
8.00608 14.766 0 
6.22568 -4.5822 0 
28.3384 45.745 0 
-49.6366 10.8461 0 
19.464 38.1161 0 
-10.3453 28.5186 0 
-55.0361 11.6918 0 
4.49736 54.4033 0 
-46.6332 22.5396 0 
38.8025 -44.7429 0 
-43.2112 -3.62457 0 
-0.207458 42.2314 0 
29.6518 34.4231 0 
51.0737 -11.7975 0 
-45.9986 -4.28598 0 
18.0723 -27.1249 0 
-38.166 -32.4998 0 
-53.0928 -26.5629 0 
14.8652 32.0239 0 
33.3034 20.7242 0 
-41.5027 35.2371 0 
13.1258 60.6101 0 
-38.2549 -6.68772 0 
-21.2674 -24.8693 0 
-53.7943 -30.1029 0 
23.89 -52.2241 0 
59.5922 16.8454 0 
37.5008 -11.4505 0 
32.3951 22.5074 0 
29.9313 -30.9036 0 
2.55566 30.2967 0 
-29.5567 -43.5213 0 
45.406 12.2964 0 
-45.4594 28.2437 0 
37.2099 38.8854 0 
-21.8824 -44.583 0 
10.4042 -13.2012 0 
-15.9052 33.1913 0 
-24.2462 43.6758 0 
-46.934 4.97891 0 
39.1902 49.0569 0 
24.7576 -14.6666 0 
6.02259 -29.2762 0 
1.03923 40.7993 0 
-47.5186 -35.2803 0 
-2.97098 7.10957 0 
-19.4234 32.7164 0 
38.009 -36.6761 0 
-61.3658 15.6615 0 
18.5974 51.0297 0 
18.3508 -17.638 0 
-47.5922 -22.6101 0 
4.13809 37.9376 0 
25.9486 9.97973 0 
-9.65747 -28.7223 0 
4.04479 49.1244 0 
-46.2996 8.98487 0 
30.2587 17.782 0 
10.3467 20.8268 0 
-32.8575 15.8828 0 
6.12143 7.88002 0 
42.079 -20.1731 0 
10.8322 38.7352 0 
51.0536 -4.50703 0 
-24.2171 19.675 0 
19.0082 52.0843 0 
-22.0944 -54.0836 0 
-2.66365 24.7124 0 
43.1193 -42.5984 0 
37.1772 -29.3133 0 
-3.48705 -8.62883 0 
0.262354 -23.6784 0 
-8.60415 -39.099 0 
-32.0562 -33.0672 0 
-16.5701 46.6744 0 
49.1319 -27.6262 0 
11.2326 42.1511 0 
49.1687 -39.0795 0 
-11.4712 54.0387 0 
-10.0993 31.4397 0 
-13.9788 21.5715 0 
-8.12641 44.0294 0 
-23.6173 33.0117 0 
-46.1092 5.83231 0 
39.7526 4.12439 0 
49.5596 32.9426 0 
20.5165 41.5838 0 
30.5953 -53.0937 0 
48.9064 40.491 0 
47.7749 -32.294 0 
-53.2245 -16.8711 0 
-7.9791 38.9226 0 
-3.80286 34.4514 0 
27.8308 -3.92372 0 
-23.5909 6.26207 0 
-47.4043 31.3044 0 
-43.9803 -24.486 0 
-32.043 -47.862 0 
23.4749 41.0282 0 
-13.7205 11.7052 0 
-40.8422 19.8357 0 
-35.7374 -28.2319 0 
-20.6732 -28.7885 0 
-2.12177 35.9443 0 
-32.3721 -11.741 0 
12.2113 -1.82303 0 
37.8088 -18.92 0 
-53.2982 25.5112 0 
3.17537 21.1706 0 
-9.35126 -36.2952 0 
-16.3508 31.3374 0 
-38.1619 37.6693 0 
-39.4905 42.0953 0 
30.0815 -34.547 0 
12.7321 12.5189 0 
46.3294 -17.9618 0 
12.3504 -35.307 0 
-15.2592 -39.572 0 
-51.0393 -10.0724 0 
17.7405 -51.7385 0 
44.8125 -2.762 0 
-24.7784 -24.2699 0 
-27.8525 -30.7684 0 
9.89149 -12.6813 0 
-44.4829 28.2482 0 
37.3046 -2.01597 0 
6.23448 -27.7415 0 
26.6879 -17.4409 0 
-14.4225 16.476 0 
-23.0017 -35.4605 0 
-40.5742 43.3519 0 
46.034 -24.5555 0 
-22.3054 45.6641 0 
-29.1572 -44.6684 0 
-24.8018 -3.74445 0 
-38.3689 -34.8566 0 
25.3253 16.0549 0 
-0.0263576 -30.6634 0 
-27.066 -37.6145 0 
-42.294 35.1013 0 
-36.2253 47.3846 0 
-10.0708 -8.17244 0 
-59.579 17.9301 0 
8.88045 29.2838 0 
-8.49748 -28.4985 0 
30.3317 -8.01909 0 
14.9101 -10.3098 0 
-58.7414 0.647726 0 
41.1611 -2.74102 0 
14.0749 54.913 0 
23.2907 -57.2626 0 
-23.9294 16.3131 0 
-51.9079 -23.0387 0 
-7.31469 -41.8788 0 
-5.4664 28.8879 0 
-29.0063 26.7792 0 
-46.7992 9.13623 0 
6.12155 5.77429 0 
-18.8909 -44.7432 0 
-0.00742654 41.4494 0 
-17.8888 23.3834 0 
-8.73921 -47.1831 0 
-12.9725 12.1367 0 
11.3854 32.2578 0 
-11.7227 -47.7653 0 
35.6117 16.1076 0 
4.99852 56.7672 0 
31.4154 -26.4814 0 
11.6622 50.7429 0 
2.53061 21.742 0 
14.7899 38.8097 0 
35.3974 40.8106 0 
2.86746 59.0719 0 
-13.495 56.0956 0 
-15.3545 -53.2652 0 
20.0818 -43.8649 0 
23.3227 -8.2446 0 
-38.6867 6.94085 0 
-25.796 20.7087 0 
-9.48101 -21.1567 0 
46.8179 -15.423 0 
-12.6637 -55.7272 0 
38.0013 -35.5878 0 
46.476 -10.5046 0 
12.5055 -29.9985 0 
36.4508 3.05742 0 
8.07288 -57.1956 0 
-0.901435 -4.68981 0 
-15.5092 -13.0999 0 
10.901 -34.8167 0 
28.3446 -46.9795 0 
-39.599 1.61888 0 
26.6261 -18.4632 0 
-31.22 -2.81701 0 
2.87149 -14.0863 0 
-38.1972 -40.6223 0 
28.8903 41.357 0 
28.546 -29.4829 0 
-41.6559 12.0676 0 
-28.7378 43.4668 0 
-0.0647731 50.3784 0 
-30.7465 25.1821 0 
-7.36371 44.6336 0 
-46.5235 -43.2099 0 
26.681 -18.1507 0 
1.86665 30.0565 0 
-10.6596 -47.768 0 
25.3857 45.8837 0 
-3.0883 27.3383 0 
53.7106 -23.22 0 
-13.0933 9.02865 0 
41.6691 12.9902 0 
39.5352 5.47686 0 
-20.8367 -54.6881 0 
-22.6385 9.34117 0 
-4.1574 -8.82538 0 
11.8748 -17.1693 0 
-29.8062 51.4932 0 
46.9672 -17.8589 0 
-0.484926 42.3534 0 
-9.49016 -20.8208 0 
21.2589 -46.9597 0 
0.10807 -60.1202 0 
3.102 21.2621 0 
-59.9561 -10.3644 0 
-29.1527 8.89631 0 
19.3671 -20.445 0 
4.59924 25.7542 0 
-11.9363 54.249 0 
-27.1072 -51.7414 0 
55.7138 -5.67847 0 
1.19838 -0.877028 0 
-3.40369 -28.7221 0 
27.6012 7.46036 0 
-21.6591 -44.6278 0 
19.4296 46.2149 0 
5.63205 -28.9613 0 
-30.6319 -35.7829 0 
33.4574 -35.0887 0 
0.569367 -50.9204 0 
-15.7573 18.1568 0 
4.59247 -8.41422 0 
41.3601 41.6693 0 
-38.4074 37.698 0 
18.8872 13.0188 0 
17.1839 8.7713 0 
11.468 -12.3484 0 
-41.3266 24.6348 0 
-15.3004 5.97078 0 
56.8391 -10.7224 0 
-13.7893 47.3184 0 
-11.0693 -14.128 0 
-38.4755 17.8472 0 
-6.84708 5.47276 0 
12.7143 43.5438 0 
-25.7198 -9.75513 0 
25.1645 -12.683 0 
-54.8672 3.28019 0 
-9.22143 7.22077 0 
-45.954 -29.1854 0 
-17.1259 46.1171 0 
-27.0907 -37.4238 0 
-9.10754 23.6768 0 
-25.1867 -34.5632 0 
14.5344 51.4048 0 
46.0969 -40.7589 0 
3.56267 -43.5558 0 
-17.9977 -60.7269 0 
37.2187 -45.7197 0 
-34.3846 15.8618 0 
-7.78881 -56.7364 0 
16.724 29.4461 0 
-53.8995 16.9208 0 
49.7134 35.6616 0 
42.0041 27.3534 0 
-37.7288 28.6903 0 
-54.436 22.0868 0 
-21.8052 27.9147 0 
-7.86822 0.233709 0 
0.297022 13.3054 0 
-62.0712 -11.4547 0 
-9.39189 -49.3728 0 
22.2879 -36.4356 0 
28.5897 49.9265 0 
10.4321 4.0185 0 
34.4534 18.4608 0 
-22.7861 51.5576 0 
-4.06765 33.1232 0 
6.69199 -29.8377 0 
-9.26414 -14.5401 0 
-36.3551 29.194 0 
11.3999 20.1244 0 
24.8891 -40.2004 0 
46.7979 43.738 0 
-60.0105 18.0548 0 
-14.3631 12.2573 0 
-29.7302 -1.59617 0 
22.0066 -27.8928 0 
-11.0302 -1.87977 0 
8.40793 -8.9277 0 
-29.8873 45.5425 0 
58.4325 1.8557 0 
-15.3403 -25.8297 0 
7.16152 -42.5341 0 
10.5281 26.7227 0 
60.4775 11.7559 0 
-3.90101 -62.1372 0 
-35.6957 -29.6164 0 
-15.8471 -10.4723 0 
-38.4821 -33.1604 0 
-16.295 -25.5056 0 
52.9534 26.2679 0 
-53.4001 -22.0565 0 
37.9256 -17.4209 0 
46.1706 1.61682 0 
1.95606 53.1206 0 
35.5866 31.8253 0 
27.1984 -29.7358 0 
24.3551 -40.517 0 
19.1808 -27.9139 0 
-7.29695 -55.9396 0 
24.7907 14.405 0 
-51.6549 -15.7613 0 
-37.0835 -26.9128 0 
45.8252 25.3942 0 
-33.528 43.7015 0 
-60.7154 17.4741 0 
17.6353 -32.6227 0 
20.7552 50.5375 0 
39.1535 19.0947 0 
38.5251 35.984 0 
63.8118 -8.23598 0 
-42.4462 -15.672 0 
-15.089 55.9945 0 
22.0103 -35.5227 0 
15.1437 18.9161 0 
15.1088 -4.27591 0 
-12.3411 -28.4931 0 
-1.8301 -30.0574 0 
-13.5228 22.391 0 
20.939 -23.311 0 
4.2573 32.4464 0 
19.2196 50.3633 0 
-9.60763 -61.2503 0 
18.5717 -27.1993 0 
-14.7118 -7.95722 0 
14.8201 51.5691 0 
-10.9598 -7.40793 0 
-18.5377 -60.6807 0 
37.8255 -9.43788 0 
7.24507 -18.4579 0 
-11.3606 -34.4799 0 
29.7436 3.61837 0 
-38.4607 -22.5945 0 
-4.23619 45.1173 0 
49.5669 23.4035 0 
[...]
<CellData Scalars="wall variable 0">
<DataArray type="Float64" Name="wall length" format="ascii">
2.74438 6.81722 1.37306 0.757469 0.845836 2.08216 1.77334 1.42169 1.11031 8.36914 2.29811 1.40817 6.70568 3.14745 6.25838 0.703366 0.799892 4.42351 3.18821 5.91536 3.32193 5.93683 1.82742 1.03975 2.39936 1.94824 0.562243 0.736971 2.86582 5.23992 5.07436 0.633522 11.3717 0.695519 2.49928 3.19694 5.48264 3.78021 0.8144 1.46442 4.35165 3.60971 5.75644 0.622757 2.99934 5.26446 1.56067 2.11557 0.633522 0.382375 3.71774 0.25229 6.62189 3.37775 3.07423 5.22629 4.48742 0.972063 3.76675 2.62855 0.4095 3.50386 4.70139 0.747054 6.73005 1.32485 0.979767 4.64615 0.983923 5.81844 4.10977 0.566681 5.02986 1.24319 6.85998 0.720492 9.13369 0.679797 1.73975 1.94412 1.04884 9.26828 1.75845 5.07898 4.10254 3.32591 1.5606 4.13702 6.72562 2.6929 3.86217 2.1543 0.76718 0.588383 8.0292 3.2603 0.320195 4.27305 3.58901 2.49703 7.16071 4.75506 3.79228 0.449969 3.66782 2.25064 4.63975 6.49508 3.86217 2.56067 1.70679 4.86011 5.08246 2.56067 2.6929 4.81266 1.35996 2.6698 7.83414 2.37638 6.64167 2.79277 0.934882 2.75712 4.29305 1.23689 3.73332 1.67389 3.27058 2.45603 3.33816 5.14288 4.23409 6.35602 6.09823 1.40817 2.11346 0.997901 3.09241 2.13002 0.653427 4.1726 6.19206 0.72972 8.85799 0.71973 1.57599 3.38212 5.35096 1.06475 2.59713 4.63975 3.00244 2.47033 3.34246 5.53901 0.949389 8.81711 0.238043 3.63126 7.33833 1.28554 7.82001 0.949145 2.28309 5.88787 1.1444 0.826234 3.00244 2.25064 3.26671 4.80781 5.10376 2.77892 2.08937 1.92913 2.27402 0.909712 0.77817 4.74365 4.75802 0.486372 4.56883 2.28473 6.68793 2.96818 4.20584 4.33376 3.68683 2.31753 2.01698 5.45542 0.476225 0.532397 2.37978 1.18633 2.56001 2.34116 0.330969 1.28245 0.973848 4.33376 7.19924 2.23986 0.225056 12.126 3.26132 0.808705 6.02349 2.09931 6.01927 2.8211 4.80781 1.49842 3.20165 7.82245 1.43174 5.79974 2.96818 0.714063 6.43877 6.45484 3.92781 3.25742 1.14146 1.95598 4.81338 4.67996 0.919787 9.43513 1.01093 0.598258 1.67389 7.90174 0.0871808 0.784614 2.41485 6.49115 2.31034 2.0239 4.86463 3.18017 1.01299 6.09222 0.845836 8.78695 2.0233 3.68683 0.973848 2.08243 2.31034 0.260384 10.5043 5.57179 4.15957 5.22629 0.125646 6.99965 2.78245 3.05414 5.62921 1.60438 5.67663 8.84625 7.72072 1.6387 4.86463 1.81259 9.1468 3.45575 6.40266 0.7682 5.50436 3.51458 3.4085 1.11 2.91644 1.11597 1.86795 2.5399 1.10711 0.79035 2.49397 0.816722 0.25229 4.15957 4.28131 0.91023 1.37306 6.06434 2.47748 4.28455 6.70043 2.35382 3.71774 0.722718 2.23136 3.23752 4.07293 5.23552 8.34673 7.33292 0.521409 2.39056 3.09015 2.52445 3.12827 1.06127 6.54843 7.2366 0.941991 1.09484 3.67306 5.78191 0.346253 1.40985 1.66101 4.05779 1.06107 2.10985 8.81711 1.67996 4.96853 1.39341 0.72972 1.80716 8.29637 2.94165 6.86915 0.483905 1.88893 6.68659 3.02903 1.3613 0.755655 6.80101 0.812296 4.98561 1.63992 1.12025 1.8044 10.7113 0.796635 6.97628 4.37594 1.41406 2.8497 6.39337 3.27951 0.585012 1.11 8.14032 2.55994 8.25256 1.10711 2.05321 1.69205 6.40266 1.70679 7.83414 0.192061 1.17073 1.46648 2.36364 2.49703 1.47143 2.07352 0.801691 4.44476 0.79847 3.99259 1.62376 8.5818 0.745409 9.5978 1.51566 7.80928 1.57059 3.29991 1.78048 2.85203 5.0629 4.52194 0.796964 5.49253 3.37775 2.05761 6.97628 2.72148 1.3826 3.80416 1.57214 3.46044 3.84772 6.64167 0.152757 10.0551 1.17443 4.29683 7.36477 1.83771 3.60551 5.78915 1.61228 0.560342 3.2966 0.366308 1.74904 0.269594 8.22036 1.11702 2.74643 9.5978 1.85163 7.00851 2.18396 0.616935 6.89596 0.817526 2.14945 5.07436 1.72417 2.27402 1.29737 3.66511 2.60915 1.57599 3.13357 0.445031 2.22367 3.64149 5.84509 1.32397 4.25006 4.38397 6.61485 1.99859 6.89437 1.77022 5.85785 1.80818 3.30909 1.31571 0.330969 7.71505 1.61749 3.26481 3.22194 2.13649 3.20408 1.57059 0.874254 2.83925 1.6746 5.07898 0.186079 8.60888 0.612151 1.29737 1.92913 0.96185 0.149644 7.54922 2.72148 0.796635 2.50681 1.51091 3.88556 1.64762 7.94437 2.41365 3.88556 2.66127 3.10921 8.08409 0.479806 10.5904 1.86795 1.33313 4.32939 5.90595 1.59835 3.56405 9.1729 0.614533 1.4093 5.92847 1.70424 10.0501 1.74123 10.1909 0.426898 7.82245 2.49875 6.96255 0.934882 1.37814 1.06127 0.776798 11.1183 0.138923 1.63992 6.11126 1.44215 2.29332 0.589643 0.31539 0.714063 2.31753 2.0233 1.41663 0.607088 1.41095 3.99454 4.28264 0.249851 3.14186 0.863034 2.79619 3.4823 1.17073 10.4993 2.15783 4.10254 1.6746 5.45539 0.904552 3.02368 1.82868 0.431174 3.96373 7.83038 0.458067 2.97758 5.77121 0.637665 5.75959 0.684141 6.93182 6.73005 0.7634 0.186079 4.78942 3.87832 1.02939 8.0292 1.2514 8.29637 0.200609 3.21609 6.68758 3.81979 8.5818 0.754875 10.0501 0.465259 6.43877 4.28264 5.00012 1.00565 1.18552 1.61749 2.41193 1.94412 2.84161 2.12859 5.5558 0.572844 8.65195 1.46092 2.01698 1.98044 4.70111 3.67565 1.46092 5.15119 0.983923 0.711944 4.24119 5.45542 4.42087 0.492985 1.82574 4.85896 0.593021 0.0372476 0.225056 6.89339 2.5698 2.59631 2.47538 0.576281 9.1808 4.01898 1.10299 5.78191 1.53748 3.64149 4.33754 0.599412 0.949145 3.03111 2.1198 6.39337 0.46269 6.34987 4.3728 7.2366 1.10299 7.82001 0.874254 7.80928 0.759182 4.10977 1.62499 5.19037 0.606483 5.72574 2.23643 4.17457 6.24111 2.23193 5.44379 0.512875 4.62481 2.20644 0.750557 0.695674 3.12706 1.06071 1.45201 6.08498 0.208718 9.03949 4.38071 0.768284 5.72574 2.00685 6.6673 3.21347 6.44219 2.27165 1.55258 3.49265 1.8988 0.93787 8.55472 2.68205 7.16229 2.56494 3.76571 6.70568 6.09823 0.702008 0.874815 2.92094 6.60949 0.137174 3.46366 0.479806 3.68289 1.40752 7.16229 4.49133 6.10205 6.11126 4.98561 9.24972 5.21515 0.257387 2.23648 0.989908 8.12762 5.95881 0.695674 10.1103 0.137119 3.27058 0.598258 3.71912 5.3308 1.37216 1.89136 6.86506 0.487006 1.89548 6.44219 1.39341 2.08536 0.919787 6.48138 8.85799 1.8988 1.40752 4.04505 4.29305 7.41297 0.863034 5.75148 3.23752 4.58586 1.05573 2.21925 5.03321 0.249854 0.152757 3.64451 6.54026 1.3273 0.138323 9.99204 1.24381 10.1513 0.752127 4.25993 4.44622 0.238043 2.10985 0.43572 3.96491 4.00063 0.172492 1.54355 1.08738 0.799892 6.93901 2.67227 7.91624 0.733529 2.49825 3.89229 2.94165 2.31203 4.65531 1.7623 0.817526 0.0989905 5.90242 3.8283 2.11557 4.18352 3.90893 1.05011 0.397517 11.3717 4.12662 6.01927 0.275564 1.58874 3.08901 1.38995 0.839657 5.15173 3.71912 1.01093 3.92222 1.67996 1.2514 2.05723 5.69815 3.89424 1.14842 1.6671 5.76365 2.07259 8.31043 0.172492 3.60289 2.23913 3.42159 0.956288 0.377079 5.07557 7.1486 1.76041 2.61886 7.95258 1.44215 9.24972 0.812296 0.712398 0.560342 0.834987 0.913773 2.62698 6.75713 4.50411 1.63834 0.615805 1.06518 2.74438 0.530759 7.73868 3.53222 5.03077 5.36194 4.33754 2.22367 0.423441 7.33833 3.16946 4.47118 6.70043 0.825669 7.25215 2.95619 3.8415 3.26132 4.12662 3.58901 5.93788 1.77334 3.11488 2.25055 1.09694 0.532397 8.29004 3.37895 0.836625 5.7238 6.16189 1.3826 7.94437 2.74256 2.32182 1.19587 5.50297 0.383828 2.38924 3.16946 3.63126 4.44622 7.28443 4.98716 5.45539 2.83925 0.606483 7.85828 0.86107 6.68793 0.967849 4.05779 4.55849 0.614533 0.550622 4.26803 9.8668 0.532708 9.26828 2.54958 5.33083 0.682997 4.07587 3.91389 2.47538 3.28894 6.72818 3.45724 3.09241 2.1181 0.616935 1.98643 0.377079 0.284367 3.17882 0.731844 3.57604 1.07976 0.492985 6.39589 4.35165 1.23387 1.14146 6.6398 5.72274 2.74508 4.70708 3.70688 1.02917 4.85896 0.949393 8.78695 0.757469 0.91023 4.47118 2.38924 0.714434 4.49144 4.43467 7.1486 0.767374 2.23648 0.0897895 5.81844 5.15119 8.65195 2.5053 7.71687 1.74904 3.10136 0.836625 1.36876 3.76311 0.512875 3.47641 2.95619 0.537975 5.53901 3.78205 0.226629 5.56611 1.98044 1.28245 2.13649 0.78585 3.76654 0.679797 4.52406 3.73316 2.62843 5.2701 2.40019 5.67663 3.01788 2.86582 4.39587 2.95946 7.05885 0.986058 4.1726 3.34324 1.78048 1.49842 3.26671 3.66782 0.404386 0.840647 1.72358 4.85725 3.90677 0.759252 3.94345 4.0124 4.3054 0.79035 8.25256 2.11346 2.29811 2.32872 3.25143 7.65209 3.60971 5.72274 0.762978 1.89157 3.80416 2.37638 1.41854 3.2966 0.712398 6.80101 7.52057 5.75959 0.747054 0.0897895 0.572844 1.7631 1.82742 6.2084 0.673626 4.5017 5.48264 5.12396 0.79847 0.499564 3.53318 0.722718 0.382375 0.525672 10.8877 0.714001 2.49825 6.71386 0.913773 1.54179 5.80921 1.08809 2.73148 0.711944 4.64615 0.597383 0.589643 0.58035 6.30919 2.67227 1.26093 2.98923 0.488741 10.1023 8.12762 7.20882 1.42567 4.12432 1.45704 2.45776 2.79619 5.03321 1.36585 3.14745 4.73895 0.533077 6.48949 3.06087 4.35568 3.33907 4.51254 8.14032 3.4085 6.17506 5.94552 2.97758 1.65602 0.559286 9.1468 2.1543 5.08246 4.12464 2.27818 1.99859 1.05637 0.444152 3.71037 0.471806 4.17457 0.94016 3.05414 4.54035 1.44664 4.12464 4.86011 2.07352 0.561838 11.668 5.79974 1.47987 7.19924 4.20584 7.90049 2.05321 2.5399 3.79734 3.60551 2.08536 4.96853 3.92222 9.43513 3.2051 2.54958 2.59631 1.97366 7.00851 4.43361 0.492613 3.8283 2.77171 1.44818 2.45603 0.137119 0.738096 3.9001 4.53138 1.98261 2.79641 2.28709 0.950657 0.275564 2.09931 0.64953 3.21609 3.88908 1.52607 6.94028 2.5698 6.19663 3.07895 3.28894 2.18396 1.97366 3.2051 1.85163 1.7623 3.17445 4.05353 5.33083 2.1181 6.19206 0.986058 2.206 0.0989905 6.89596 0.499564 4.44476 5.94505 0.28858 8.79812 3.06338 4.62729 1.40985 5.2698 6.4251 2.04082 0.537039 3.94668 4.70111 5.56611 3.59951 3.43221 0.8891 3.96491 5.32808 4.79765 1.21391 3.03111 1.12615 6.48949 1.67952 7.30265 0.647127 6.1961 4.55532 2.24705 0.944249 0.125646 3.07423 5.49253 0.383828 3.0545 1.15273 8.34673 0.93787 7.41297 2.75712 6.96255 2.42629 0.59488 7.1257 2.47694 3.55375 4.0124 2.96829 0.684141 4.5017 5.73713 1.89017 1.17443 1.58607 0.700981 5.9101 1.50405 4.50632 3.59951 2.1204 8.76827 1.07976 6.36237 0.604579 2.04082 0.226629 3.73641 2.74508 1.82574 1.07015 7.7537 0.695519 0.397517 0.856761 1.56575 7.60376 0.28169 7.59068 4.18352 1.56067 4.7896 1.33313 1.11597 0.989908 0.767374 5.07557 1.98643 5.26221 7.20882 4.07587 3.94241 5.54127 3.74713 1.36765 4.02291 0.44745 3.92781 3.00698 0.198408 8.36117 2.16136 2.56001 8.39784 1.12025 0.138923 0.878212 9.8668 4.42281 8.22036 1.7732 6.02771 7.98466 2.2327 2.50681 10.7113 2.58127 6.93901 0.703366 6.33077 3.01487 7.86472 7.24451 3.72488 1.2246 0.0295333 3.52747 6.71834 2.47694 0.860705 2.52178 1.41406 3.10921 9.71244 0.964855 0.76718 1.05637 6.61485 0.75511 0.674675 6.71218 4.75802 0.86107 1.33071 8.39216 5.26221 6.39589 4.42087 0.551587 1.42567 5.92847 4.96178 3.06338 1.43114 1.9678 4.06882 5.4374 5.77596 3.46879 0.615805 0.64953 6.02349 3.91204 3.79217 0.839657 6.68758 3.00698 4.67996 3.85321 1.45201 0.728231 5.07749 0.818389 0.249684 3.91204 0.808705 3.8415 3.47641 5.44379 2.1204 5.32808 0.43572 2.58127 5.30282 1.00497 0.193308 0.857902 5.00012 3.99454 2.76635 4.31038 4.59263 3.73641 3.76654 4.90184 4.70708 0.750557 2.55597 3.75674 1.20302 3.86187 0.738096 10.1103 0.421836 0.0473997 0.860705 7.1257 1.58128 0.628804 4.81266 6.72562 0.731844 4.96176 5.0629 3.78206 5.91536 2.13906 2.26329 1.56575 6.478 0.566681 0.759182 1.51566 2.74643 0.51575 0.713998 0.752127 2.16863 0.8891 5.84597 5.90681 3.60289 4.00063 0.251123 9.26295 6.60101 5.21027 0.926453 4.62851 5.38986 2.66951 3.76311 1.98261 3.19011 5.86203 2.35754 0.607088 8.5404 4.59986 6.54843 1.37814 2.79277 3.84772 0.31539 10.1023 3.51818 5.26334 4.23409 1.26623 2.49875 3.20165 3.90677 0.818454 7.34218 0.904316 2.42629 0.743747 6.39621 3.21821 1.2246 1.64877 5.69815 1.20192 0.551587 6.89339 2.23986 1.47987 1.43174 0.954727 0.705775 4.12432 5.88225 4.52194 4.96176 3.17882 5.02506 0.51575 1.11702 4.42281 1.03779 5.65589 2.30068 0.671596 0.7682 1.69205 7.90049 1.83771 7.71687 1.90007 2.20378 7.23317 2.47392 0.775162 9.38937 0.856761 1.05011 4.77056 5.02986 6.478 0.75592 9.1808 3.19665 7.82604 1.82868 1.58586 9.38937 1.95284 4.05149 3.96373 2.08617 1.00497 0.500429 0.911678 0.465259 1.70424 1.98045 2.67968 1.25507 7.70941 2.66127 1.51091 2.2327 2.82594 5.41036 9.71244 7.81454 0.909712 1.72417 5.23992 3.01788 1.60438 0.860056 0.198408 0.818389 3.15512 5.14288 3.70136 4.49144 0.257387 3.33223 2.73977 4.32939 4.7896 5.26446 0.396862 3.76675 5.34762 1.33071 0.550622 9.1729 5.18686 0.137174 1.23119 1.65602 0.458067 0.65108 6.17506 3.51458 0.880516 6.6673 0.224702 3.74713 1.82887 1.57214 1.89157 1.22042 0.497515 4.7239 4.43361 3.86187 2.44086 3.55703 6.73329 1.5606 0.951547 2.78955 4.39587 0.736971 0.816722 0.394506 3.52747 4.37594 2.05761 6.62189 0.705775 9.23284 0.413567 5.88787 4.03884 1.45704 6.2084 5.93683 6.229 7.46474 2.5053 2.66951 4.38662 2.08617 0.637665 7.3872 2.30068 3.74205 4.75506 1.96095 1.54355 8.31043 4.90184 0.78585 3.22194 0.628276 9.09258 3.70688 3.59421 7.08085 1.84509 7.16038 2.23913 5.90681 1.46568 1.58955 3.11167 6.41451 2.186 3.4874 3.33223 5.21515 0.553566 5.03077 0.671596 7.3872 5.77121 5.94552 1.81259 2.61886 1.10142 1.98366 2.95946 3.29991 4.2551 2.90534 5.29553 2.62843 0.451846 9.84935 3.81256 5.18317 1.87234 0.61722 3.87832 2.39452 1.23787 0.138323 5.01919 2.34005 0.28169 2.91644 0.585012 6.52808 4.28455 6.5483 2.7563 5.2698 0.346253 0.949389 0.423441 0.870127 2.20378 2.83736 5.25971 5.80921 0.50207 8.12334 1.32397 2.27818 1.44664 0.160745 0.647127 5.54401 0.883077 0.954727 6.45484 1.18552 3.68454 9.23284 4.16665 4.74365 6.89622 0.728231 1.06071 1.32485 6.93182 5.9101 4.87992 8.11929 2.87024 4.00068 1.58128 2.96829 3.94345 2.20189 2.92094 0.751935 1.99806 6.09879 2.06536 2.17672 6.72777 4.67121 4.54035 2.78245 2.40019 2.78955 3.06087 1.12615 6.34987 0.568922 1.95284 0.775162 2.39217 0.54033 0.967849 2.28473 7.46835 4.1486 1.07015 2.50925 1.24381 1.06107 0.880145 2.77892 4.16665 3.12706 0.588791 1.35322 7.24451 1.31571 6.11278 3.35381 0.8144 3.96085 1.67525 2.39621 5.84509 1.53748 3.67306 5.19601 1.97825 0.588791 9.03949 1.91723 2.27165 1.89548 6.46325 0.933027 3.19694 2.90085 1.18117 3.99259 5.12396 5.07749 6.89622 0.77817 7.81454 2.34005 1.85112 1.24319 4.77056 3.90893 7.59068 3.88908 0.200609 1.80716 5.35096 2.54032 4.78271 0.0473997 9.30025 2.82594 7.98466 1.8044 2.52178 0.421836 4.13702 0.964855 5.41036 9.30025 5.96571 2.44086 1.20302 5.9964 2.39056 3.37611 0.5634 10.4993 0.192061 2.6698 8.52997 1.23837 4.56883 1.20726 1.74123 0.754875 1.62376 1.18117 0.591872 7.46835 1.99806 8.90763 0.96185 2.08937 0.880145 7.86472 0.245273 5.04106 7.98446 3.79228 3.74205 2.07259 2.08243 12.126 0.0372476 2.07123 8.84625 2.0239 5.50297 6.69914 0.483905 1.27532 2.65501 3.0545 1.98366 2.67499 2.77171 5.90242 2.206 7.05885 8.52997 1.35996 0.628804 4.00068 6.59369 1.88041 0.779229 1.84509 4.5388 2.39217 2.47392 6.14924 2.35382 3.82358 0.249851 0.5634 2.75 5.90595 2.73977 2.99934 1.62681 2.54032 3.38212 2.60915 2.39621 2.44029 5.24684 1.4093 4.55849 1.66101 4.62729 4.96178 2.55597 2.20644 2.15945 3.0373 2.52445 6.13296 2.78228 3.66511 0.612151 5.405 2.77653 5.98687 4.01898 0.75592 3.02368 4.30117 0.35128 6.19663 5.36519 0.965119 2.39452 4.78942 7.54922 0.445031 9.36088 0.0871808 3.96607 2.186 3.53222 0.394506 2.49397 4.3054 3.55375 6.71834 2.50872 2.06559 3.25143 0.903064 4.52406 9.13369 0.249854 0.0277537 3.33907 1.80166 3.59421 2.05103 1.58607 10.0551 1.18633 8.41005 3.02903 8.39784 2.20189 0.759252 2.55994 3.45575 0.559286 1.23119 6.60949 0.403064 7.33292 1.15273 2.65501 3.46563 8.23187 3.1012 8.23187 0.55117 10.8877 4.27305 0.828368 4.76026 0.530759 1.42169 5.93788 2.19696 1.68641 7.71569 0.950657 0.6655 1.24379 9.26295 0.919109 10.3627 1.94824 2.14945 2.78228 5.65342 1.91723 0.208718 6.1056 1.95598 1.23387 1.46442 3.35381 2.33763 1.55258 0.961331 10.3511 1.55381 2.05409 0.966419 8.55472 0.59488 0.904316 1.78102 8.21561 0.217484 3.64451 7.36477 0.673626 7.46474 0.710576 2.13002 3.45724 0.495984 5.73713 1.23837 6.59369 2.87024 3.68289 1.59835 2.75 0.193308 7.70941 5.05931 1.01152 4.05652 4.05149 0.568922 0.46269 2.8497 4.51254 0.65108 7.83038 5.1044 6.52808 3.27951 2.1198 1.21391 3.57604 2.26329 4.73538 6.36237 3.75674 6.13296 3.09015 5.9964 6.08498 3.85321 4.81338 6.1056 4.1486 0.591872 2.90085 2.49928 7.7537 0.268022 2.40011 0.451846 3.73316 0.903064 2.32872 8.36914 3.34189 5.05931 1.25507 4.05071 4.48742 3.75929 5.16278 1.6671 3.86892 8.09771 3.43221 4.50632 0.906746 3.07951 1.44407 1.46568 5.84597 2.05409 3.96473 6.89437 1.67525 4.57756 4.37389 8.11929 4.88365 1.88041 3.74257 0.597383 0.979767 2.36364 2.76677 4.42351 1.08738 1.96095 7.16071 3.13357 0.71973 6.48138 0.784614 9.36088 0.356114 7.85828 5.19037 1.09394 6.54026 0.217484 3.11488 2.08216 6.09222 6.07828 0.829557 8.39216 5.34762 0.972063 4.05071 2.67968 1.98045 10.1909 1.20726 0.486372 6.71218 0.829557 2.12859 1.09194 2.90534 0.323104 0.6655 2.28709 0.709853 0.260384 6.49115 0.705234 1.03975 1.7631 3.67565 3.94668 7.688 1.03779 6.02771 4.84621 3.31599 2.32769 2.47033 5.10376 2.8211 0.426898 3.12827 3.0373 2.20422 1.00565 4.59263 2.80378 4.44441 1.1444 0.413567 3.68454 2.47748 0.783212 5.77596 2.05785 2.4131 1.29809 6.5483 4.37389 6.29949 0.622757 1.0924 4.49133 2.68205 0.966419 0.751935 4.72726 5.36519 0.149644 8.90763 3.67428 3.17445 4.65531 0.492613 4.7239 0.997901 7.65209 2.06559 6.9402 0.776798 1.26623 7.95258 4.2551 0.796964 5.88225 0.284367 3.37895 5.96216 1.08809 5.25971 0.515904 4.62851 1.36876 0.682997 4.05353 3.67428 0.497515 5.96571 1.57794 3.94241 2.23966 6.99965 0.944249 5.23552 0.403064 3.1012 0.525672 0.834987 1.61228 3.70136 3.33816 1.44818 2.67499 1.10142 1.76041 4.43467 0.323104 9.84935 2.40011 1.27633 6.60101 1.24379 0.599407 0.28858 8.86603 0.500429 5.30282 3.01487 1.60331 1.05573 1.79239 4.55532 5.05684 0.561838 1.47143 0.449969 7.98446 1.42495 8.36117 0.860056 5.62921 0.94016 2.23643 0.768284 1.43114 6.4251 2.7563 1.29809 6.81552 0.828253 1.89878 3.34189 2.98634 4.39802 4.02639 6.84611 1.01152 2.50925 7.60376 2.16863 10.1513 0.496476 7.73868 4.76026 4.5464 1.2256 5.54127 1.57794 3.37611 0.521409 4.59986 3.46044 1.82887 4.62481 3.78205 3.34246 2.20422 2.15945 1.80166 4.35568 0.54033 4.5388 7.08085 3.07895 0.35128 1.2495 1.78102 4.29683 1.89017 0.495984 6.72818 1.41663 10.5043 0.709853 2.79641 8.5404 5.94505 0.801691 3.81979 0.911678 8.86603 0.880516 7.97706 4.02291 1.42495 4.38071 2.15783 6.24425 0.444152 4.67121 0.951547 3.32591 0.553566 5.95881 2.45776 4.03884 2.28309 0.599412 5.36194 3.79734 4.28131 5.57179 2.23966 5.78915 0.366308 7.52057 0.755655 1.13732 5.7238 3.10136 0.714434 7.28443 4.25993 0.713998 5.02506 3.07971 1.6556 3.46366 5.18686 5.50436 10.5904 2.39936 7.688 0.537039 0.604579 4.73538 2.13906 3.89424 1.64877 3.72488 1.35322 0.933027 5.63119 1.73975 5.2701 5.29553 1.09194 2.84161 0.515904 2.83736 1.90007 1.58586 4.38662 5.38986 4.45263 3.31599 0.809252 3.55703 0.562243 10.3627 2.98781 0.58035 2.29332 6.75713 7.56896 1.2495 4.30117 0.904552 4.98716 0.356114 8.21561 4.57756 3.96085 3.78021 6.29949 3.96607 7.90174 3.73332 3.15512 3.4874 2.34116 2.16136 4.26803 1.04884 2.41193 7.71505 5.65342 5.98687 1.05412 3.18017 0.949393 1.6556 2.17171 3.89229 0.714001 0.55117 3.46563 1.27532 6.86915 2.37978 6.16189 1.13732 1.3613 8.41005 1.06518 3.46879 0.783212 6.06434 6.81722 1.0924 5.75644 1.41854 1.23689 4.04505 6.10205 0.431174 7.82604 1.60417 3.71037 6.24425 1.02917 9.09258 2.90937 7.72072 2.07123 0.593021 0.809252 4.84621 1.7732 0.269594 0.745409 3.20408 1.75845 6.73329 3.74257 6.14924 7.23317 0.870127 1.54179 1.14842 5.63119 6.46325 0.487006 0.449425 3.86892 3.26481 5.5558 0.705234 2.41485 1.6387 2.90937 0.628276 1.62499 6.85998 1.85112 5.01919 1.3273 1.09394 3.07971 5.65589 2.32769 4.45263 0.919109 2.17171 3.82358 4.07293 5.75148 3.14186 1.36585 2.21925 1.60331 6.33077 6.25838 0.224702 2.00685 6.24111 0.471806 1.60417 3.19665 0.576281 3.91389 1.36765 0.588383 1.09694 3.56996 5.405 8.60888 0.7634 6.30919 2.98781 3.09768 7.91624 4.24119 2.73148 5.96216 8.29004 0.476225 0.355324 8.76827 0.857902 4.05652 6.84611 3.78206 2.85203 3.34324 0.653427 0.710576 6.229 3.32193 0.0277537 9.99204 1.23787 5.1044 4.79765 0.533077 3.79217 0.249684 2.23193 5.3308 5.15173 6.9402 2.50872 0.720492 0.532708 0.878212 11.1183 3.30909 1.46305 3.49265 2.33763 6.11278 4.87992 0.700981 2.05103 7.16038 0.779229 4.88365 1.22042 0.762978 6.6398 3.25742 0.44745 7.97706 3.09768 7.56896 2.62698 6.71386 0.733529 3.53318 8.79812 0.599407 4.58586 2.23136 3.4823 4.73895 3.18821 2.76677 1.46648 2.25055 6.07828 1.0129