<VTKFile type="UnstructuredGrid" version="0.1">
<UnstructuredGrid>
<Piece  NumberOfPoints="    2499" NumberOfCells="     420">
<Points>
<DataArray type="Float64" NumberOfComponents="3" format="ascii">
19.1503 -17.0561 0.0
19.5903 -14.2919 0.0
14.2521 -16.3952 0.0
16.3648 -19.7088 0.0
17.5044 -19.6133 0.0
23.5178 -24.6163 0.0
23.3169 -23.7465 0.0
19.6352 -23.5494 0.0
15.9812 -27.7685 0.0
18.0725 -29.1714 0.0
29.7467 -40.8445 0.0
32.0185 -37.7644 0.0
28.0909 -36.2181 0.0
27.1274 -36.9691 0.0
26.2688 -41.0293 0.0
-47.1271 20.3529 0.0
-43.5794 19.8764 0.0
-41.2074 23.0414 0.0
-40.9835 24.2476 0.0
-44.7148 27.3547 0.0
-46.0027 26.1503 0.0
-47.2068 22.0367 0.0
24.6835 -2.88234 0.0
25.8147 -4.91984 0.0
29.565 -3.28043 0.0
30.1566 1.30739 0.0
29.7016 2.11552 0.0
25.099 2.60737 0.0
30.7041 1.23249 0.0
30.1126 -3.35532 0.0
33.0636 -5.41398 0.0
34.9255 -2.67389 0.0
35.5977 -0.671962 0.0
34.98 1.0904 0.0
6.9272 41.2467 0.0
7.32197 40.8835 0.0
10.7116 39.92 0.0
13.3622 41.796 0.0
14.7381 44.6933 0.0
13.492 45.6951 0.0
13.1236 45.7382 0.0
-19.8147 -50.7901 0.0
-24.4347 -49.0239 0.0
-28.2965 -51.3897 0.0
-24.3369 -54.1699 0.0
-13.9302 -30.3695 0.0
-16.141 -32.9587 0.0
-13.7116 -36.4792 0.0
-9.45656 -36.9174 0.0
-8.99674 -35.0768 0.0
-27.4203 26.0451 0.0
-28.479 24.6074 0.0
-28.5703 23.7627 0.0
-24.6075 21.0879 0.0
-21.0099 24.48 0.0
-21.3131 24.9894 0.0
-48.2594 -32.2444 0.0
-46.2405 -28.2291 0.0
-52.8232 -25.9033 0.0
-51.483 -29.2858 0.0
-16.612 -12.6856 0.0
-17.4106 -7.96069 0.0
-22.3405 -6.22881 0.0
-22.9073 -6.8103 0.0
-23.518 -9.69778 0.0
-20.9413 -11.2699 0.0
-22.4175 30.9363 0.0
-21.6566 31.5502 0.0
-22.6491 36.3116 0.0
-24.9033 35.9544 0.0
-27.2956 31.654 0.0
-25.8533 30.0713 0.0
0.28992 -5.5681 0.0
-1.51997 -3.72717 0.0
-5.26262 -3.5945 0.0
-6.55802 -6.48363 0.0
-4.23711 -7.85091 0.0
25.1675 -47.4555 0.0
28.4377 -46.3631 0.0
25.1493 -42.3024 0.0
23.7001 -43.2097 0.0
21.9086 -45.3331 0.0
22.1279 -45.6709 0.0
-30.2698 -7.22365 0.0
-35.4127 -11.2821 0.0
-33.2733 -14.7111 0.0
-32.3751 -14.7223 0.0
-29.0054 -11.6391 0.0
-11.5985 19.6899 0.0
-9.22546 21.4448 0.0
-8.32969 23.956 0.0
-10.2776 25.1268 0.0
-11.495 25.6174 0.0
-15.5148 20.6595 0.0
52.5705 -11.1406 0.0
52.5882 -8.43335 0.0
51.1563 -6.14332 0.0
49.7839 -6.68484 0.0
47.5706 -9.44061 0.0
47.5104 -10.4667 0.0
52.5329 -11.4397 0.0
-2.07025 57.7105 0.0
2.31293 56.5353 0.0
4.60258 58.3855 0.0
3.36448 59.2502 0.0
-3.37238 59.694 0.0
-4.85141 58.86 0.0
9.78216 25.3178 0.0
11.4982 22.7366 0.0
15.3069 20.2004 0.0
18.6472 22.2385 0.0
17.6263 24.0896 0.0
-40.9681 5.55585 0.0
-40.0403 4.65555 0.0
-38.0195 8.39453 0.0
-40.0068 15.0002 0.0
-40.5872 14.7752 0.0
-41.0022 32.2004 0.0
-41.682 32.2553 0.0
-44.4631 27.8655 0.0
-40.7317 24.7583 0.0
-39.9343 25.7743 0.0
13.1452 15.1931 0.0
14.0142 13.4261 0.0
19.4685 14.2096 0.0
17.2033 17.0066 0.0
15.4948 18.4624 0.0
37.7834 -32.6467 0.0
38.8226 -33.3425 0.0
46.2037 -26.0696 0.0
46.263 -24.1759 0.0
44.4416 -23.6165 0.0
-10.6891 45.8227 0.0
-9.49747 46.7657 0.0
-11.504 51.7975 0.0
-13.7791 51.7295 0.0
-14.8175 51.2598 0.0
-15.4945 50.7036 0.0
8.43614 -49.448 0.0
8.76394 -49.1296 0.0
5.48921 -46.2344 0.0
1.73903 -46.5625 0.0
0.206682 -50.272 0.0
-16.7542 10.0813 0.0
-15.8238 12.2734 0.0
-19.5225 15.8515 0.0
-22.8605 12.7758 0.0
-22.3328 9.85324 0.0
56.8449 -15.139 0.0
55.3571 -14.5591 0.0
52.0549 -20.7561 0.0
53.1005 -21.5193 0.0
55.9467 -20.2925 0.0
-49.4965 11.5029 0.0
-44.3701 12.9487 0.0
-48.7788 17.2642 0.0
-50.2884 15.0637 0.0
19.2404 -23.3298 0.0
17.3621 -20.2917 0.0
16.2224 -20.3873 0.0
12.8701 -22.4232 0.0
12.9303 -24.9497 0.0
14.2868 -27.5741 0.0
15.2302 -27.6536 0.0
15.5864 -27.549 0.0
15.5129 51.6198 0.0
19.0474 51.2092 0.0
14.6641 56.2219 0.0
10.5635 56.6988 0.0
11.7044 54.0102 0.0
12.2359 53.1034 0.0
6.24923 18.357 0.0
6.157 18.4775 0.0
2.32197 20.014 0.0
-2.06636 17.4597 0.0
-1.51428 16.3611 0.0
7.04983 17.2494 0.0
5.61874 12.7622 0.0
3.95384 13.4184 0.0
-0.997376 10.0341 0.0
1.82077 8.9547 0.0
4.0582 8.77211 0.0
5.70243 11.9783 0.0
-42.1317 -35.9729 0.0
-41.2296 -34.4832 0.0
-42.6615 -31.0283 0.0
-45.2664 -28.3739 0.0
-45.7424 -28.6101 0.0
-47.7613 -32.6254 0.0
-44.5238 -36.0695 0.0
-17.4236 -17.7353 0.0
-13.9821 -21.5175 0.0
-9.64644 -18.2895 0.0
-11.2572 -16.3924 0.0
-14.651 -15.2015 0.0
-15.0871 -15.1658 0.0
-15.6875 36.7868 0.0
-12.7986 37.89 0.0
-11.4417 39.4895 0.0
-18.455 40.6826 0.0
-19.7833 38.016 0.0
-52.0751 -11.2258 0.0
-52.0332 -11.6715 0.0
-46.6836 -16.5436 0.0
-46.2771 -16.3618 0.0
-47.4334 -11.5393 0.0
-48.9322 -10.4398 0.0
-50.622 -9.32287 0.0
-51.717 -10.6595 0.0
-2.84514 -31.3267 0.0
-2.1323 -31.4371 0.0
3.4104 -28.8115 0.0
3.44897 -28.6467 0.0
3.11936 -27.202 0.0
-1.32698 -25.5635 0.0
-3.56642 -25.9268 0.0
-2.97871 -31.2547 0.0
-26.647 -13.366 0.0
-28.7105 -12.058 0.0
-32.0802 -15.1412 0.0
-28.2187 -19.8015 0.0
35.4387 5.28342 0.0
36.3467 5.9298 0.0
37.7301 12.5145 0.0
34.7092 13.3022 0.0
33.1392 9.10448 0.0
20.0159 14.272 0.0
20.7171 13.511 0.0
24.5782 15.4245 0.0
23.3254 18.3694 0.0
17.7508 17.0691 0.0
-13.3739 -37.0611 0.0
-13.7656 -37.7879 0.0
-9.01895 -43.0312 0.0
-8.05103 -43.2478 0.0
-6.20805 -42.7201 0.0
-5.7029 -39.8756 0.0
-5.98004 -39.5526 0.0
-9.11888 -37.4993 0.0
-44.6217 -39.6912 0.0
-44.8287 -36.3179 0.0
-48.0662 -32.8738 0.0
-51.2898 -29.9153 0.0
-49.5124 -34.3573 0.0
-47.39 -37.3042 0.0
32.1765 -48.9027 0.0
24.0195 -53.1142 0.0
23.0256 -55.1201 0.0
22.7781 -55.6121 0.0
25.7604 -54.7958 0.0
31.3016 -51.7864 0.0
34.2679 -49.001 0.0
14.885 -28.4833 0.0
13.9417 -28.4039 0.0
9.31191 -31.2515 0.0
10.4236 -35.0851 0.0
13.3708 -35.3764 0.0
13.7738 -35.1294 0.0
51.3723 18.3692 0.0
50.8653 18.688 0.0
48.6094 17.9684 0.0
48.5966 13.1803 0.0
49.6523 10.9961 0.0
52.0599 10.907 0.0
-49.3475 11.0211 0.0
-49.2063 7.19687 0.0
-45.9265 5.6519 0.0
-44.0268 7.95329 0.0
-43.6047 12.4047 0.0
-44.2211 12.4669 0.0
15.0097 19.1658 0.0
14.9762 19.9163 0.0
11.1675 22.4525 0.0
10.6007 22.1726 0.0
7.04407 18.6955 0.0
7.1363 18.5749 0.0
41.5414 35.4097 0.0
43.0009 33.8601 0.0
45.4473 36.402 0.0
43.9607 38.7178 0.0
40.524 40.2582 0.0
40.3429 37.8644 0.0
-6.28767 -61.6274 0.0
-4.89459 -61.8585 0.0
-1.98607 -60.8681 0.0
-5.37987 -56.6755 0.0
-7.62471 -56.4187 0.0
-31.3892 31.7548 0.0
-31.1662 30.5998 0.0
-27.6709 31.8537 0.0
-25.2786 36.1541 0.0
-26.0357 39.9009 0.0
-27.113 39.7763 0.0
-30.1438 -3.71459 0.0
-29.6076 -5.81 0.0
-23.5489 -6.25431 0.0
-22.9821 -5.67282 0.0
-24.3604 -1.37789 0.0
-25.9264 -0.411793 0.0
-27.6875 -1.55675 0.0
-0.912789 -25.0676 0.0
-0.938123 -25.1647 0.0
3.50822 -26.8033 0.0
7.32724 -22.468 0.0
6.75067 -21.6538 0.0
-0.503525 -24.2513 0.0
-3.91642 26.7975 0.0
-7.71954 24.0935 0.0
-8.61532 21.5823 0.0
-6.23419 20.7858 0.0
-5.02946 21.9773 0.0
-1.88152 26.2126 0.0
1.14518 -46.5883 0.0
-0.231323 -46.0039 0.0
-2.18665 -45.8016 0.0
-4.99609 -50.3623 0.0
-1.70052 -51.5059 0.0
-0.387169 -50.2977 0.0
-53.4366 9.84094 0.0
-53.7507 7.91694 0.0
-51.9778 4.44199 0.0
-49.7199 7.22564 0.0
-49.8612 11.0499 0.0
-50.6531 14.6106 0.0
-52.4008 13.6379 0.0
5.78228 6.54479 0.0
6.42448 6.32596 0.0
10.176 5.3215 0.0
12.0934 7.84488 0.0
10.0615 9.41552 0.0
6.21709 11.7118 0.0
4.57286 8.50558 0.0
5.42283 7.09643 0.0
-4.75482 47.0203 0.0
-4.99774 46.8679 0.0
-5.59416 41.1264 0.0
-3.99024 40.5283 0.0
-2.6552 40.2094 0.0
-0.744568 41.1971 0.0
3.48034 -6.55735 0.0
8.62825 -4.79243 0.0
8.76736 -2.75081 0.0
8.38492 -2.44166 0.0
4.53062 -0.453077 0.0
11.4444 0.476409 0.0
10.1809 -1.52003 0.0
14.8938 -4.55919 0.0
16.44 -2.06076 0.0
14.2371 -0.330428 0.0
14.0261 -6.91691 0.0
14.1934 -7.27992 0.0
19.7002 -6.11537 0.0
20.7566 -3.4652 0.0
18.1997 -1.79262 0.0
16.8606 -2.34243 0.0
15.3144 -4.84086 0.0
-56.0006 -0.639836 0.0
-54.4828 -0.521524 0.0
-52.0573 -0.174119 0.0
-52.2073 3.36403 0.0
-52.2438 3.76988 0.0
-54.0168 7.24483 0.0
-56.2973 5.10796 0.0
-40.4506 -35.1415 0.0
-41.3527 -36.6312 0.0
-37.2845 -41.2716 0.0
-35.7832 -42.6709 0.0
-32.2535 -42.8719 0.0
-33.1716 -40.0953 0.0
-35.2604 -37.5833 0.0
-9.66955 -56.0782 0.0
-12.257 -59.0531 0.0
-7.60083 -61.3388 0.0
-6.68657 -61.5668 0.0
-8.02361 -56.3581 0.0
28.9476 28.1316 0.0
27.2979 29.306 0.0
24.6055 25.61 0.0
26.7945 22.7471 0.0
29.3733 22.7562 0.0
-15.7833 -5.75578 0.0
-14.9132 -5.47197 0.0
-14.077 -1.79045 0.0
-16.2635 1.84129 0.0
-20.0316 0.64826 0.0
-20.4142 -0.0518848 0.0
-1.5807 -3.2368 0.0
-0.527489 -0.533412 0.0
-2.38842 1.07715 0.0
-3.03137 1.65687 0.0
-6.03446 2.74038 0.0
-7.28412 -0.9171 0.0
-5.32335 -3.10413 0.0
-21.6252 -40.4069 0.0
-22.3972 -43.2071 0.0
-14.3292 -45.4583 0.0
-14.1265 -43.8033 0.0
-17.5621 -41.133 0.0
-41.347 -30.8251 0.0
-42.0265 -31.1642 0.0
-40.5946 -34.6191 0.0
-35.4044 -37.0608 0.0
-34.0487 -34.5201 0.0
36.9754 -22.9051 0.0
36.8118 -21.9588 0.0
33.9145 -23.1111 0.0
31.5098 -25.7344 0.0
30.4679 -29.4057 0.0
31.0896 -32.2169 0.0
17.1063 27.618 0.0
20.3717 29.0807 0.0
21.779 32.154 0.0
20.6769 33.5248 0.0
19.4026 35.1083 0.0
16.6881 34.8054 0.0
15.7388 28.5476 0.0
47.1983 1.64625 0.0
47.0494 2.58906 0.0
44.3413 3.1265 0.0
43.0448 -1.21907 0.0
43.857 -6.75682 0.0
45.3567 -7.13946 0.0
59.5123 4.78905 0.0
58.7037 8.56529 0.0
57.683 11.0304 0.0
55.7163 12.276 0.0
55.4735 8.66977 0.0
55.902 6.48863 0.0
-16.7636 50.0248 0.0
-20.2281 49.3043 0.0
-21.7658 46.8023 0.0
-21.9286 43.84 0.0
-18.8406 44.4184 0.0
-18.4204 44.7229 0.0
-17.302 45.5183 0.0
-5.0621 30.3528 0.0
-3.5889 27.3269 0.0
-1.554 26.742 0.0
0.386079 26.7722 0.0
-0.202809 29.8744 0.0
-2.42993 31.9557 0.0
40.1953 -44.9983 0.0
43.4374 -42.8738 0.0
47.3658 -38.6212 0.0
47.7245 -37.2061 0.0
45.1059 -37.161 0.0
41.3857 -42.114 0.0
39.9744 -43.8703 0.0
-26.4045 -26.586 0.0
-21.0135 -24.1569 0.0
-21.2066 -22.9943 0.0
-22.4576 -21.336 0.0
-24.7753 -21.3484 0.0
2.04898 30.6857 0.0
0.438277 29.772 0.0
1.02717 26.6698 0.0
2.65826 25.7497 0.0
7.80886 26.5803 0.0
9.16461 28.4337 0.0
-0.504524 35.5301 0.0
-0.0563781 35.5751 0.0
5.0972 41.2521 0.0
4.58966 41.7408 0.0
1.12232 41.5109 0.0
-0.285497 40.8264 0.0
-2.19613 39.8388 0.0
-1.379 36.5409 0.0
35.1825 -3.35026 0.0
33.3207 -6.09034 0.0
[...]
<CellData Scalars="cell variable 4" Vectors="cell vector">
<DataArray type="Float64" NumberOfComponents="3" Name="cell vector" format="ascii">
0 0 0
0 0 0
0 0 0
0 0 0
0 0 0
0 0 0
0 0 0
0 0 0
0 0 0
0 0 0
0 0 0
0 0 0
0 0 0
0 0 0
0 0 0
0 0 0
0 0 0
0 0 0
0 0 0
0 0 0
0 0 0
0 0 0
0 0 0
0 0 0
0 0 0
0 0 0
0 0 0
0 0 0
0 0 0
0 0 0
0 0 0
0 0 0
0 0 0
0 0 0
0 0 0
0 0 0
0 0 0
0 0 0
0 0 0
0 0 0
0 0 0
0 0 0
0 0 0
0 0 0
0 0 0
0 0 0
0 0 0
0 0 0
0 0 0
0 0 0
0 0 0
0 0 0
0 0 0
0 0 0
0 0 0
0 0 0
0 0 0
0 0 0
0 0 0
0 0 0
0 0 0
0 0 0
0 0 0
0 0 0
0 0 0
0 0 0
0 0 0
0 0 0
0 0 0
0 0 0
0 0 0
0 0 0
0 0 0
0 0 0
0 0 0
0 0 0
0 0 0
0 0 0
0 0 0
0 0 0
0 0 0
0 0 0
0 0 0
0 0 0
0 0 0
0 0 0
0 0 0
0 0 0
0 0 0
0 0 0
0 0 0
0 0 0
0 0 0
0 0 0
0 0 0
0 0 0
0 0 0
0 0 0
0 0 0
0 0 0
0 0 0
0 0 0
0 0 0
0 0 0
0 0 0
0 0 0
0 0 0
0 0 0
0 0 0
0 0 0
0 0 0
0 0 0
0 0 0
0 0 0
0 0 0
0 0 0
0 0 0
0 0 0
0 0 0
0 0 0
0 0 0
0 0 0
0 0 0
0 0 0
0 0 0
0 0 0
0 0 0
0 0 0
0 0 0
0 0 0
0 0 0
0 0 0
0 0 0
0 0 0
0 0 0
0 0 0
0 0 0
0 0 0
0 0 0
0 0 0
0 0 0
0 0 0
0 0 0
0 0 0
0 0 0
0 0 0
0 0 0
0 0 0
0 0 0
0 0 0
0 0 0
0 0 0
0 0 0
0 0 0
0 0 0
0 0 0
0 0 0
0 0 0
0 0 0
0 0 0
0 0 0
0 0 0
0 0 0
0 0 0
0 0 0
0 0 0
0 0 0
0 0 0
0 0 0
0 0 0
0 0 0
0 0 0
0 0 0
0 0 0
0 0 0
0 0 0
0 0 0
0 0 0
0 0 0
0 0 0
0 0 0
0 0 0
0 0 0
0 0 0
0 0 0
0 0 0
0 0 0
0 0 0
0 0 0
0 0 0
0 0 0
0 0 0
0 0 0
0 0 0
0 0 0
0 0 0
0 0 0
0 0 0
0 0 0
0 0 0
0 0 0
0 0 0
0 0 0
0 0 0
0 0 0
0 0 0
0 0 0
0 0 0
0 0 0
0 0 0
0 0 0
0 0 0
0 0 0
0 0 0
0 0 0
0 0 0
0 0 0
0 0 0
0 0 0
0 0 0
0 0 0
0 0 0
0 0 0
0 0 0
0 0 0
0 0 0
0 0 0
0 0 0
0 0 0
0 0 0
0 0 0
0 0 0
0 0 0
0 0 0
0 0 0
0 0 0
0 0 0
0 0 0
0 0 0
0 0 0
0 0 0
0 0 0
0 0 0
0 0 0
0 0 0
0 0 0
0 0 0
0 0 0
0 0 0
0 0 0
0 0 0
0 0 0
0 0 0
0 0 0
0 0 0
0 0 0
0 0 0
0 0 0
0 0 0
0 0 0
0 0 0
0 0 0
0 0 0
0 0 0
0 0 0
0 0 0
0 0 0
0 0 0
0 0 0
0 0 0
0 0 0
0 0 0
0 0 0
0 0 0
0 0 0
0 0 0
0 0 0
0 0 0
0 0 0
0 0 0
0 0 0
0 0 0
0 0 0
0 0 0
0 0 0
0 0 0
0 0 0
0 0 0
0 0 0
0 0 0
0 0 0
0 0 0
0 0 0
0 0 0
0 0 0
0 0 0
0 0 0
0 0 0
0 0 0
0 0 0
0 0 0
0 0 0
0 0 0
0 0 0
0 0 0
0 0 0
0 0 0
0 0 0
0 0 0
0 0 0
0 0 0
0 0 0
0 0 0
0 0 0
0 0 0
0 0 0
0 0 0
0 0 0
0 0 0
0 0 0
0 0 0
0 0 0
0 0 0
0 0 0
0 0 0
0 0 0
0 0 0
0 0 0
0 0 0
0 0 0
0 0 0
0 0 0
0 0 0
0 0 0
0 0 0
0 0 0
0 0 0
0 0 0
0 0 0
0 0 0
0 0 0
0 0 0
0 0 0
0 0 0
0 0 0
0 0 0
0 0 0
0 0 0
0 0 0
0 0 0
0 0 0
0 0 0
0 0 0
0 0 0
0 0 0
0 0 0
0 0 0
0 0 0
0 0 0
0 0 0
0 0 0
0 0 0
0 0 0
0 0 0
0 0 0
0 0 0
0 0 0
0 0 0
0 0 0
0 0 0
0 0 0
0 0 0
0 0 0
0 0 0
0 0 0
0 0 0
0 0 0
0 0 0
0 0 0
0 0 0
0 0 0
0 0 0
0 0 0
0 0 0
0 0 0
0 0 0
0 0 0
0 0 0
0 0 0
0 0 0
0 0 0
0 0 0
0 0 0
0 0 0
0 0 0
0 0 0
0 0 0
0 0 0
0 0 0
0 0 0
0 0 0
0 0 0
0 0 0
0 0 0
0 0 0
0 0 0
0 0 0
0 0 0
0 0 0
0 0 0
0 0 0
0 0 0
0 0 0
0 0 0
0 0 0
0 0 0
0 0 0
0 0 0
0 0 0
0 0 0
</DataArray>
<DataArray type="Float64" Name="cell vector length" format="ascii">
0 0 0 0 0 0 0 0 0 0 0 0 0 0 0 0 0 0 0 0 0 0 0 0 0 0 0 0 0 0 0 0 0 0 0 0 0 0 0 0 0 0 0 0 0 0 0 0 0 0 0 0 0 0 0 0 0 0 0 0 0 0 0 0 0 0 0 0 0 0 0 0 0 0 0 0 0 0 0 0 0 0 0 0 0 0 0 0 0 0 0 0 0 0 0 0 0 0 0 0 0 0 0 0 0 0 0 0 0 0 0 0 0 0 0 0 0 0 0 0 0 0 0 0 0 0 0 0 0 0 0 0 0 0 0 0 0 0 0 0 0 0 0 0 0 0 0 0 0 0 0 0 0 0 0 0 0 0 0 0 0 0 0 0 0 0 0 0 0 0 0 0 0 0 0 0 0 0 0 0 0 0 0 0 0 0 0 0 0 0 0 0 0 0 0 0 0 0 0 0 0 0 0 0 0 0 0 0 0 0 0 0 0 0 0 0 0 0 0 0 0 0 0 0 0 0 0 0 0 0 0 0 0 0 0 0 0 0 0 0 0 0 0 0 0 0 0 0 0 0 0 0 0 0 0 0 0 0 0 0 0 0 0 0 0 0 0 0 0 0 0 0 0 0 0 0 0 0 0 0 0 0 0 0 0 0 0 0 0 0 0 0 0 0 0 0 0 0 0 0 0 0 0 0 0 0 0 0 0 0 0 0 0 0 0 0 0 0 0 0 0 0 0 0 0 0 0 0 0 0 0 0 0 0 0 0 0 0 0 0 0 0 0 0 0 0 0 0 0 0 0 0 0 0 0 0 0 0 0 0 0 0 0 0 0 0 0 0 0 0 0 0 0 0 0 0 0 0 0 0 0 0 0 0 0 0 0 0 0 0 0 0 0 0 0 0 0 0 0 0 0 0 0 0 0 0 0 0 0 0 0 0 0 0 0 0 0 0 0 0 
</DataArray>
<DataArray type="Float64" Name="cell variable 4" format="ascii">
0.316217 0.000510187 7.22055e-10 1.1392e-10 0.249242 0.0032488 1.23542e-08 5.06408e-13 0.000319359 0.000137838 9.78894e-13 0.479217 5.48914e-07 1.04461 2.5153e-11 0.000586701 0.334198 4.77775e-11 2.14504e-13 0.161465 1.34433e-07 1.43573e-10 0.511974 1.79224e-10 1.25207e-10 1.06024e-10 0.393381 8.0853e-13 2.48184e-10 0.163146 9.42051e-13 0.626025 0.980966 1.75394e-12 0.437452 1.19294e-07 4.633e-11 0.184973 0.00760007 4.69927e-06 0.252014 1.1995e-07 1.0791e-13 1.08668e-13 0.000160982 5.75207e-12 8.58362e-10 0.434405 8.1913e-13 9.33834e-14 3.42967e-09 0.23011 0.442722 0.33356 3.05763e-10 1.53946e-11 1.06245 2.68958e-08 1.11547 0.912892 0.573608 3.35388e-12 6.26079e-12 9.33834e-14 1.55471e-05 0.542818 1.12037 6.17036e-10 1.36606e-10 1.97283e-08 4.18495e-05 2.5907e-09 2.35345e-13 5.84028e-11 0.0976075 7.68667e-14 0.000116047 0.0505895 5.96913e-06 1.61534e-05 5.26566e-05 2.73299e-11 5.60239e-07 9.71611e-13 1.81312e-09 8.20491e-13 1.55214e-11 1.10185 1.14226 0.371127 8.20491e-13 0.708918 3.8559e-13 1.82626e-12 4.42555e-05 0.00273317 0.118662 7.85135e-13 1.3423e-11 3.14565e-11 0.503886 5.73e-12 1.68594e-06 4.8591e-12 4.44145e-11 2.814e-10 2.22629e-12 5.76039e-06 3.47057e-13 9.51839e-14 3.83176e-13 1.11565e-11 1.3423e-11 0.673042 3.49399e-07 8.33062e-06 2.42345e-06 6.16323e-05 1.6923e-08 0.789941 6.21845e-13 1.12502e-11 3.37504e-10 4.46645e-09 2.16e-11 0.000425284 6.21089e-10 7.13306e-11 0.99432 5.20703e-14 2.06819e-12 4.42555e-05 5.41779e-08 0.000705084 0.66381 1.95527e-13 5.22026e-13 4.32436e-12 2.10901e-08 1.18023e-09 2.34778e-08 1.00681 7.58754e-07 1.95527e-13 1.73379e-12 4.633e-11 2.88095e-08 6.97512e-07 3.13132e-09 8.68069e-05 0.0773391 5.37776e-11 0.00151096 0.919422 1.16697e-08 7.29789e-07 1.85341e-12 2.00391e-09 1.12956e-11 0.000237451 3.42138e-05 0.94865 0.848855 2.59037e-13 1.10621e-08 5.78851e-09 0.657465 8.723e-13 6.30556e-13 3.48747e-09 0.27464 1.36504e-12 0.00403603 1.03617e-13 2.4788e-08 3.89469e-09 2.0118e-13 3.72001e-12 0.130161 0.0824302 9.53305e-13 0.179448 2.86502e-13 1.32488e-09 0.00103121 1.89305e-07 1.2938e-10 1.41816e-10 0.313432 0.136507 6.83616e-13 3.01178e-10 1.07467 8.75867e-11 1.36132e-10 2.06659e-11 6.13175e-07 6.80038e-10 1.5044e-05 3.52153e-13 0.790107 2.44056e-08 2.28015e-11 3.58878e-10 1.84661e-13 0.50937 0.45141 3.48316e-07 7.55742e-08 2.44034e-13 0.514292 0.000157331 4.61276e-06 0.495708 1.0952e-09 0.153908 7.50844e-12 4.76435e-12 1.38398e-06 1.23799e-05 7.27365e-13 3.28772e-13 3.34221e-13 0.00145277 3.28772e-13 0.8063 0.000331293 0.332003 2.73979e-13 0.763876 1.76443e-09 0.90618 1.25207e-10 0.187543 8.15157e-13 0.0646441 3.38072e-08 1.14453e-06 0.00370628 0.631062 7.9236e-08 1.73262e-10 0.343308 0.32239 0.000306373 0.399988 5.52696e-11 0.736473 2.24794e-07 5.6859e-12 5.98214e-11 0.393247 9.86599e-09 0.36504 1.60998e-08 1.04772e-07 1.86103e-08 3.09214e-07 0.0097703 1.5272e-11 1.65194e-09 1.09841e-08 0.184059 4.92599e-13 0.000209614 0.27464 0.0978407 0.0505895 2.73299e-11 4.61276e-06 0.000319359 6.80038e-10 5.06408e-13 0.542818 7.29789e-07 4.76435e-12 0.136507 3.49399e-07 0.184973 5.37776e-11 0.187543 3.42138e-05 1.79224e-10 1.73262e-10 0.000116047 0.000157331 0.00760007 2.5907e-09 2.16e-11 3.42967e-09 1.14453e-06 0.23011 2.34778e-08 8.15157e-13 4.46645e-09 0.0032488 1.06024e-10 2.24794e-07 1.0952e-09 1.16697e-08 7.9236e-08 1.1995e-07 1.68594e-06 0.179448 9.78894e-13 0.118662 0.000160982 8.723e-13 1.10621e-08 1.61534e-05 0.631062 1.73379e-12 6.13175e-07 7.27365e-13 1.97283e-08 0.153908 5.22026e-13 1.11547 0.980966 5.48914e-07 0.0824302 0.32239 0.161465 2.48184e-10 4.69927e-06 5.75207e-12 3.72001e-12 2.10901e-08 0.00103121 1.36606e-10 6.21845e-13 0.000137838 6.17036e-10 5.26566e-05 3.14565e-11 5.96913e-06 3.48747e-09 0.495708 0.36504 1.55471e-05 2.59037e-13 5.12565e-14 1.18023e-09 1.85341e-12 0.000425284 7.58754e-07 5.6859e-12 0.848855 0.000510187 2.44034e-13 0.657465 0.573608 0.919422 0.442722 0.399988 0.252014 1.55214e-11 1.82626e-12 1.23542e-08 3.09214e-07 0.000237451 0.343308 6.16323e-05 2.814e-10 1.12956e-11 0.763876 9.71611e-13 0.313432 0.789941 1.76443e-09 5.76039e-06 5.78851e-09 0.0773391 1.10185 3.01178e-10 0.790107 1.32488e-09 8.0853e-13 0.673042 0.00370628 0.66381 4.32436e-12 7.85135e-13 0.514292 3.52153e-13 1.65194e-09 3.37504e-10 1.43573e-10 1.14226 2.5153e-11 0.626025 1.04461 4.77775e-11 1.5272e-11 5.73e-12 8.33062e-06 0.00151096 0.511974 2.86502e-13 9.86599e-09 0.130161 2.68958e-08 1.34433e-07 2.35345e-13 1.23799e-05 1.5044e-05 6.21089e-10 8.1913e-13 2.06659e-11 7.22055e-10 6.83616e-13 7.50844e-12 3.83176e-13 1.2938e-10 0.434405 0.316217 2.42345e-06 0.371127 0.912892 7.55742e-08 
</DataArray>
<DataArray type="Float64" Name="cell variable 5" format="ascii">
0.0909148 0.999974 1 1 0.138655 0.998946 1 1 0.99999 0.999998 1 0.0417277 1 0.00908091 1 0.999966 0.082177 1 1 0.277231 1 1 0.0367488 1 1 1 0.0606986 1 1 0.273099 1 0.0248813 0.0102849 1 0.0496613 1 1 0.226167 0.994257 1 0.136034 1 1 1 0.999997 1 1 0.0503251 1 1 1 0.158855 0.0485429 0.0824658 1 1 0.00878122 1 0.00797274 0.0118572 0.0294962 1 1 1 1 0.0328244 0.00790366 1 1 1 1 1 1 1 0.512105 1 0.999999 0.796223 1 1 1 1 1 1 1 1 1 0.00816951 0.00760594 0.0676886 1 0.0195097 1 1 1 0.999254 0.415271 1 1 1 0.037893 1 1 1 1 1 1 1 1 1 1 1 1 0.021599 1 1 1 1 1 0.0157727 1 1 1 1 1 0.999982 1 1 0.0100133 1 1 1 1 0.99995 0.0221905 1 1 1 1 1 1 0.00976872 1 1 1 1 1 1 1 0.999999 0.62573 1 0.999772 0.0116913 1 1 1 1 1 0.999994 1 0.0109898 0.0136882 1 1 1 0.0226112 1 1 1 0.117059 1 0.998374 1 1 1 1 1 0.371169 0.595425 1 0.236958 1 1 0.999894 1 1 1 0.0923878 0.349234 1 1 0.00858434 1 1 1 1 1 1 1 0.0157662 1 1 1 1 0.0371116 0.0467791 1 1 1 0.0364304 0.999998 1 0.0391044 1 0.296844 1 1 1 1 1 1 1 0.999789 1 0.0151488 0.999989 0.0831765 1 0.016849 1 0.0120314 1 0.221374 1 0.705275 1 1 0.998628 0.0244954 1 1 0.0782104 0.0877689 0.999991 0.0588268 1 0.0181031 1 1 1 0.0607373 1 0.0698059 1 1 1 1 0.990544 1 1 1 0.227907 1 0.999996 0.117059 0.510913 0.796223 1 1 0.99999 1 1 0.0328244 1 1 0.349234 1 0.226167 1 0.221374 1 1 1 0.999999 0.999998 0.994257 1 1 1 1 0.158855 1 1 1 0.998946 1 1 1 1 1 1 1 0.236958 1 0.415271 0.999997 1 1 1 0.0244954 1 1 1 1 0.296844 1 0.00797274 0.0102849 1 0.595425 0.0877689 0.277231 1 1 1 1 1 0.999894 1 1 0.999998 1 1 1 1 1 0.0391044 0.0698059 1 1 1 1 1 0.999982 1 1 0.0136882 0.999974 1 0.0226112 0.0294962 0.0116913 0.0485429 0.0588268 0.136034 1 1 1 1 0.999994 0.0782104 1 1 1 0.016849 1 0.0923878 0.0157727 1 1 1 0.62573 0.00816951 1 0.0157662 1 1 0.021599 0.998628 0.0221905 1 1 0.0364304 1 1 1 1 0.00760594 1 0.0248813 0.00908091 1 1 1 1 0.999772 0.0367488 1 1 0.371169 1 1 1 1 1 1 1 1 1 1 1 1 1 0.0503251 0.0909148 1 0.0676886 0.0118572 1 
</DataArray>
<DataArray type="Float64" Name="cell variable 6" format="ascii">
0.0038835 1.00883 1.00917 1.00917 0.0566856 1.00681 1.00917 1.00917 1.00896 1.00908 1.00917 0.00051123 1.00917 6.33494e-06 1.00917 1.00878 0.00576492 1.00917 1.00917 0.298329 1.00917 1.00917 0.00035504 1.00917 1.00917 1.00917 0.00151522 1.00917 1.00917 0.294057 1.00917 0.000115922 9.11938e-06 1.00917 0.000885689 1.00917 1.00917 0.208208 1.00277 1.00917 0.0441278 1.00917 1.00917 1.00917 1.00907 1.00917 1.00917 0.000857904 1.00917 1.00917 1.00917 0.0671729 0.000858618 0.00403961 1.00917 1.00917 5.74138e-06 1.00917 4.32387e-06 1.38076e-05 0.000187165 1.00917 1.00917 1.00917 1.00916 0.000251962 4.21468e-06 1.00917 1.00917 1.00917 1.00915 1.00917 1.00917 1.00917 0.67289 1.00917 1.0091 0.900072 1.00917 1.00916 1.00914 1.00917 1.00917 1.00917 1.00917 1.00917 1.00917 4.64493e-06 3.76475e-06 0.0019189 1.00917 5.81379e-05 1.00917 1.00917 1.00914 1.00716 0.533485 1.00917 1.00917 1.00917 0.000380196 1.00917 1.00917 1.00917 1.00917 1.00917 1.00917 1.00917 1.00917 1.00917 1.00917 1.00917 1.00917 7.76673e-05 1.00917 1.00917 1.00917 1.00913 1.00917 3.156e-05 1.00917 1.00917 1.00917 1.00917 1.00917 1.00889 1.00917 1.00917 8.43313e-06 1.00917 1.00917 1.00914 1.00917 1.0087 8.3838e-05 1.00917 1.00917 1.00917 1.00917 1.00917 1.00917 7.8448e-06 1.00917 1.00917 1.00917 1.00917 1.00917 1.00917 1.00917 1.00912 0.780596 1.00917 1.00816 1.32528e-05 1.00917 1.00917 1.00917 1.00917 1.00917 1.00902 1.00915 1.10661e-05 2.09522e-05 1.00917 1.00917 1.00917 8.84138e-05 1.00917 1.00917 1.00917 0.02163 1.00917 1.00605 1.00917 1.00917 1.00917 1.00917 1.00917 0.477444 0.752638 1.00917 0.235078 1.00917 1.00917 1.00849 1.00917 1.00917 1.00917 0.00439847 0.432355 1.00917 1.00917 5.3719e-06 1.00917 1.00917 1.00917 1.00917 1.00917 1.00916 1.00917 3.15261e-05 1.00917 1.00917 1.00917 1.00917 0.000394946 0.000696942 1.00917 1.00917 1.00917 0.000349016 1.00907 1.00917 0.000410215 1.00917 0.3398 1.00917 1.00917 1.00917 1.00917 1.00917 1.00917 1.00917 1.00814 1.00917 2.80904e-05 1.00895 0.00364689 1.00917 3.81646e-05 1.00917 1.4406e-05 1.00917 0.185318 1.00917 0.841792 1.00917 1.00917 1.00642 0.000110922 1.00917 1.00917 0.00310284 0.00628005 1.00897 0.00127682 1.00917 4.69278e-05 1.00917 1.00917 1.00917 0.00202135 1.00917 0.0019794 1.00917 1.00917 1.00917 1.00917 1.00014 1.00917 1.00917 1.00917 0.235443 1.00917 1.00904 0.02163 0.674122 0.900072 1.00917 1.00917 1.00896 1.00917 1.00917 0.000251962 1.00917 1.00917 0.432355 1.00917 0.208208 1.00917 0.185318 1.00915 1.00917 1.00917 1.0091 1.00907 1.00277 1.00917 1.00917 1.00917 1.00917 0.0671729 1.00917 1.00917 1.00917 1.00681 1.00917 1.00917 1.00917 1.00917 1.00917 1.00917 1.00917 0.235078 1.00917 0.533485 1.00907 1.00917 1.00917 1.00916 0.000110922 1.00917 1.00917 1.00917 1.00917 0.3398 1.00917 4.32387e-06 9.11938e-06 1.00917 0.752638 0.00628005 0.298329 1.00917 1.00917 1.00917 1.00917 1.00917 1.00849 1.00917 1.00917 1.00908 1.00917 1.00914 1.00917 1.00917 1.00917 0.000410215 0.0019794 1.00916 1.00917 1.00917 1.00917 1.00917 1.00889 1.00917 1.00917 2.09522e-05 1.00883 1.00917 8.84138e-05 0.000187165 1.32528e-05 0.000858618 0.00127682 0.0441278 1.00917 1.00917 1.00917 1.00917 1.00902 0.00310284 1.00913 1.00917 1.00917 3.81646e-05 1.00917 0.00439847 3.156e-05 1.00917 1.00917 1.00917 0.780596 4.64493e-06 1.00917 3.15261e-05 1.00917 1.00917 7.76673e-05 1.00642 8.3838e-05 1.00917 1.00917 0.000349016 1.00917 1.00917 1.00917 1.00917 3.76475e-06 1.00917 0.000115922 6.33494e-06 1.00917 1.00917 1.00917 1.00917 1.00816 0.00035504 1.00917 1.00917 0.477444 1.00917 1.00917 1.00917 1.00917 1.00916 1.00917 1.00917 1.00917 1.00917 1.00917 1.00917 1.00917 1.00917 0.000857904 0.0038835 1.00917 0.0019189 1.38076e-05 1.00917 
</DataArray>
<DataArray type="Float64" Name="cell variable 7" format="ascii">
0.357275 0.805214 0.978092 0.988818 0.413855 0.731648 0.944982 0.994685 0.786592 0.818915 0.993483 0.24144 0.895885 0.091923 0.989084 0.789622 0.334908 0.989411 0.998841 0.543895 0.953353 0.985799 0.2268 0.985845 0.986201 0.987264 0.290041 0.998525 0.983128 0.531783 0.992442 0.185875 0.103782 0.990411 0.262734 0.924335 0.988661 0.488241 0.695937 0.865788 0.422896 0.91048 0.997008 1.00172 0.804465 0.987088 0.980133 0.264653 0.991034 0.999503 0.963699 0.46057 0.259721 0.337987 0.973562 0.99226 0.0886341 0.95837 0.0788486 0.116913 0.203114 0.995708 0.986261 0.999503 0.87201 0.214434 0.0779382 0.968141 0.97158 0.947968 0.828165 0.967203 0.99644 0.984507 0.58928 1.00361 0.821805 0.667622 0.876672 0.855098 0.808066 0.980165 0.910934 0.997889 0.951959 1.00169 0.991878 0.0813708 0.0738515 0.306453 1.00169 0.162493 0.994971 0.992078 0.85435 0.786302 0.633332 0.999409 0.99489 0.994724 0.230311 0.992247 0.922196 0.993424 0.98225 0.982487 0.998131 0.912087 1.00344 1.00249 0.999787 0.987627 0.99489 0.172124 0.887905 0.869271 0.886845 0.804393 0.966248 0.142859 0.996819 0.999395 0.974211 0.96428 0.987688 0.777768 0.969761 0.985824 0.10127 0.997763 0.994612 0.85435 0.955764 0.790771 0.174715 0.996832 0.994101 0.996076 0.945385 0.96829 0.922008 0.0989326 0.900971 0.996832 0.995481 0.988661 0.95287 0.921346 0.970096 0.812727 0.646851 0.979721 0.723507 0.115625 0.962378 0.91184 0.996643 0.966983 0.990645 0.815305 0.881455 0.109939 0.129973 0.998061 0.947397 0.969413 0.176526 0.996302 0.995339 0.970553 0.399197 0.994013 0.781706 0.997327 0.95286 0.960718 0.999721 0.995783 0.557964 0.652741 0.998509 0.481302 0.999409 0.978562 0.74517 0.938631 0.98041 0.9868 0.360012 0.58017 0.999374 0.975103 0.0863829 0.983673 0.986005 0.977907 0.926956 0.962912 0.867885 0.994962 0.142821 0.952017 0.98832 0.967409 1.00069 0.227704 0.255368 0.905229 0.926812 1.00105 0.225806 0.802201 0.89681 0.233945 0.965959 0.544906 0.989109 0.987181 0.900885 0.864126 0.997658 0.998671 1.00028 0.822606 0.998671 0.139181 0.823381 0.340125 0.99635 0.148901 0.962923 0.118245 0.986201 0.511928 0.991957 0.663687 0.960394 0.908704 0.736426 0.184332 0.937093 0.978337 0.329428 0.347352 0.774006 0.285858 0.988558 0.15552 0.921969 0.990758 0.988722 0.288948 0.963751 0.311423 0.969235 0.926865 0.933796 0.914119 0.724735 0.990516 0.973522 0.955946 0.426674 1.00277 0.803638 0.399197 0.570965 0.667622 0.980165 0.89681 0.786592 0.962912 0.994685 0.214434 0.91184 0.987181 0.58017 0.887905 0.488241 0.979721 0.511928 0.881455 0.985845 0.978337 0.821805 0.802201 0.695937 0.967203 0.987688 0.963699 0.908704 0.46057 0.922008 0.991957 0.96428 0.731648 0.987264 0.921969 0.965959 0.962378 0.937093 0.91048 0.922196 0.481302 0.993483 0.633332 0.804465 0.996302 0.947397 0.855098 0.184332 0.995481 0.926956 0.997658 0.947968 0.544906 0.994101 0.0788486 0.103782 0.895885 0.652741 0.347352 0.543895 0.983128 0.865788 0.987088 0.995783 0.945385 0.74517 0.97158 0.996819 0.818915 0.968141 0.808066 0.994724 0.876672 0.970553 0.233945 0.311423 0.87201 0.998061 1.00149 0.96829 0.996643 0.777768 0.900971 0.990758 0.129973 0.805214 1.00105 0.176526 0.203114 0.115625 0.259721 0.285858 0.422896 0.991878 0.992078 0.944982 0.914119 0.815305 0.329428 0.804393 0.982487 0.990645 0.148901 0.997889 0.360012 0.142859 0.962923 0.912087 0.969413 0.646851 0.0813708 0.975103 0.142821 0.978562 0.998525 0.172124 0.736426 0.174715 0.996076 0.999409 0.225806 0.994962 0.973522 0.974211 0.985799 0.0738515 0.989084 0.185875 0.091923 0.989411 0.990516 0.992247 0.869271 0.723507 0.2268 0.999409 0.963751 0.557964 0.95837 0.953353 0.99644 0.864126 0.867885 0.969761 0.991034 0.977907 0.978092 0.999374 0.989109 0.999787 0.98041 0.264653 0.357275 0.886845 0.306453 0.116913 0.926812 
</DataArray>
<DataArray type="Float64" Name="cell variable 8" format="ascii">