<VTKFile type="UnstructuredGrid" version="0.1">
<UnstructuredGrid>
<Piece  NumberOfPoints="    2455" NumberOfCells="     411">
<Points>
<DataArray type="Float64" NumberOfComponents="3" format="ascii">
26.5313 -24.9468 0.0
25.8899 -25.4586 0.0
30.29 -28.9819 0.0
31.4638 -27.6692 0.0
31.4541 -23.1113 0.0
36.1041 -39.247 0.0
36.0277 -38.6308 0.0
30.1524 -38.1161 0.0
29.4045 -38.7287 0.0
26.7708 -43.6432 0.0
26.5356 -44.3366 0.0
-22.5337 52.4751 0.0
-25.3716 52.8891 0.0
-26.948 52.5349 0.0
-28.4797 51.4681 0.0
-25.9845 46.7249 0.0
-23.1496 47.0716 0.0
0.110621 13.1983 0.0
-1.4691 14.7029 0.0
-9.1001 9.00707 0.0
-8.64392 7.14644 0.0
-8.42425 6.86536 0.0
-0.742282 12.5423 0.0
45.3957 -7.1322 0.0
46.4686 -6.27654 0.0
44.4732 -1.31998 0.0
41.8933 -3.86271 0.0
40.4817 -5.57302 0.0
41.6581 -7.97459 0.0
49.9121 -0.43045 0.0
48.5094 -5.88149 0.0
52.7149 -9.42682 0.0
55.2727 -5.66248 0.0
53.4065 -3.56252 0.0
-27.538 -2.48626 0.0
-28.2368 -2.34054 0.0
-30.8928 -2.06847 0.0
-29.477 -6.39949 0.0
-26.8429 -8.73359 0.0
-26.5096 -8.96502 0.0
-25.8517 -8.8073 0.0
11.1634 -16.1483 0.0
15.0581 -10.6224 0.0
13.9547 -8.65641 0.0
7.33717 -11.0047 0.0
9.75618 -14.8388 0.0
-25.7573 -52.9625 0.0
-23.7326 -55.8729 0.0
-22.5326 -56.861 0.0
-19.0228 -52.6533 0.0
-22.6253 -49.2754 0.0
-45.7943 37.7694 0.0
-45.8041 37.2573 0.0
-44.8441 36.5163 0.0
-40.2031 34.1837 0.0
-39.4494 34.5786 0.0
-36.267 38.7524 0.0
-47.4586 -10.7016 0.0
-44.8773 -11.1164 0.0
-39.1946 -6.12077 0.0
-39.3576 -5.90522 0.0
-48.1345 -8.11817 0.0
-32.8659 -12.1824 0.0
-36.8973 -10.7431 0.0
-37.8256 -11.9145 0.0
-37.4314 -16.7586 0.0
-37.3239 -16.8339 0.0
-43.4808 -15.1183 0.0
-44.0038 -12.1758 0.0
-45.0432 -11.6447 0.0
-47.6245 -11.2298 0.0
-48.1663 -12.4877 0.0
-47.8149 -16.302 0.0
-47.4314 -16.8631 0.0
-6.1637 -5.2255 0.0
-6.61052 -5.0274 0.0
-8.37336 -5.41899 0.0
-8.67901 -6.53977 0.0
-9.63229 -10.335 0.0
-5.79187 -11.8997 0.0
-4.65133 -10.9583 0.0
28.3705 -6.13174 0.0
29.7975 -2.7981 0.0
29.4702 -2.51794 0.0
26.7228 -2.58037 0.0
23.4323 -6.52202 0.0
23.1925 -7.33269 0.0
23.183 -7.67451 0.0
-54.2143 -21.4628 0.0
-52.4842 -24.3287 0.0
-51.1495 -24.4245 0.0
-46.8207 -20.0256 0.0
-47.867 -17.5699 0.0
-48.2504 -17.0088 0.0
-16.5553 41.4739 0.0
-17.3191 41.4866 0.0
-18.1331 36.2366 0.0
-16.7159 36.3407 0.0
-14.2552 36.548 0.0
-13.9081 39.2292 0.0
-15.5744 40.8769 0.0
52.4695 5.69568 0.0
52.4432 12.8751 0.0
49.6309 12.473 0.0
48.5976 9.57683 0.0
27.0622 -10.427 0.0
31.1799 -9.83024 0.0
33.1553 -5.95229 0.0
31.5138 -4.0123 0.0
30.6826 -3.0984 0.0
30.1559 -3.01535 0.0
28.729 -6.34899 0.0
25.2446 34.1143 0.0
28.6243 35.942 0.0
27.2432 39.4139 0.0
24.8558 40.1487 0.0
23.6988 40.0518 0.0
20.0871 39.6463 0.0
22.8137 36.7428 0.0
53.8273 -3.20235 0.0
55.6935 -5.30231 0.0
56.5689 -4.96277 0.0
56.7724 -4.63466 0.0
57.7726 -1.31392 0.0
56.6239 2.08882 0.0
55.1494 2.21822 0.0
-15.1513 11.6722 0.0
-13.5384 11.8121 0.0
-9.97293 18.0577 0.0
-10.1769 18.481 0.0
-11.6832 18.937 0.0
-13.927 18.9193 0.0
-16.9569 14.3887 0.0
-16.9652 12.7602 0.0
21.2056 24.176 0.0
22.5034 22.8248 0.0
28.1503 26.9193 0.0
27.9708 27.7862 0.0
24.1628 29.4047 0.0
26.7231 15.8202 0.0
29.524 14.5765 0.0
32.3455 16.4173 0.0
32.7645 20.4179 0.0
32.5217 21.2814 0.0
30.8685 22.0922 0.0
30.185 21.787 0.0
-40.4049 33.7278 0.0
-45.0459 36.0604 0.0
-44.1136 29.086 0.0
-42.5244 28.0808 0.0
-32.6994 15.2401 0.0
-35.0069 14.6269 0.0
-35.8 11.7177 0.0
-34.0705 9.74585 0.0
-28.243 9.98457 0.0
-30.6871 23.4586 0.0
-31.1576 24.204 0.0
-36.6583 20.8033 0.0
-37.2645 20.3493 0.0
-37.1265 18.8668 0.0
-35.9818 16.913 0.0
-53.8347 14.9948 0.0
-54.2703 14.7211 0.0
-53.3061 9.0837 0.0
-52.3711 7.62536 0.0
-48.5152 9.63651 0.0
47.7625 -13.8616 0.0
46.8166 -13.4559 0.0
40.9758 -14.5672 0.0
40.7261 -15.0676 0.0
40.419 -18.3492 0.0
42.6108 -19.1683 0.0
20.4373 -38.8401 0.0
21.5007 -38.6081 0.0
28.1621 -33.5829 0.0
28.1989 -33.0889 0.0
27.8858 -32.5453 0.0
25.7633 -32.2654 0.0
19.8154 -35.5587 0.0
19.9452 -38.0273 0.0
-35.6218 0.300733 0.0
-36.4048 1.58793 0.0
-41.9886 3.305 0.0
-41.9456 0.288868 0.0
-39.0267 -1.60238 0.0
7.36011 30.4475 0.0
3.32397 32.2349 0.0
2.05318 31.5866 0.0
-2.72059 27.1181 0.0
-0.956564 25.7806 0.0
0.221946 26.1655 0.0
8.61619 19.3547 0.0
7.24106 19.5875 0.0
2.06681 13.4969 0.0
2.35175 13.2582 0.0
6.31982 12.7908 0.0
6.58617 13.0743 0.0
8.69074 15.7325 0.0
9.28101 18.0101 0.0
-53.6775 8.65001 0.0
-57.3517 9.08824 0.0
-58.2507 4.81865 0.0
-57.6313 4.2621 0.0
-54.861 4.01961 0.0
-54.4099 4.37024 0.0
-52.826 6.73874 0.0
-52.7426 7.19166 0.0
-23.2694 -24.0267 0.0
-23.672 -23.6253 0.0
-24.5574 -23.5477 0.0
-27.2141 -26.4211 0.0
-27.955 -27.9229 0.0
-25.104 -31.062 0.0
28.4079 42.9384 0.0
28.1871 43.4655 0.0
20.2158 44.7967 0.0
24.8888 40.6405 0.0
27.2762 39.9057 0.0
28.3875 41.815 0.0
-7.88645 32.1596 0.0
-7.5732 28.5742 0.0
-5.56356 27.3079 0.0
-4.80944 27.2033 0.0
-3.33437 27.2057 0.0
1.43939 31.6742 0.0
-3.34247 -51.2606 0.0
-1.49156 -50.0791 0.0
-5.03259 -42.4445 0.0
-5.20282 -42.4803 0.0
-5.41329 -47.1389 0.0
-5.20305 -50.6517 0.0
-4.92302 -50.8691 0.0
-44.1809 -21.5625 0.0
-46.5351 -20.3057 0.0
-50.8639 -24.7046 0.0
-48.9517 -26.8848 0.0
-48.0087 -27.3781 0.0
60.0429 18.1735 0.0
59.5848 18.4278 0.0
55.5795 11.9915 0.0
57.8997 8.8975 0.0
59.047 10.0009 0.0
35.918 24.1001 0.0
39.1385 25.5757 0.0
36.3715 29.9168 0.0
32.3355 28.5263 0.0
-40.6147 14.5526 0.0
-37.7347 18.5162 0.0
-37.8726 19.9987 0.0
-38.7072 20.5936 0.0
-44.456 14.9646 0.0
18.9205 -35.8943 0.0
18.7974 -35.7932 0.0
9.41024 -39.7612 0.0
8.58395 -41.1042 0.0
12.3518 -40.4471 0.0
19.0503 -38.3629 0.0
-37.6938 10.3733 0.0
-37.0193 11.2067 0.0
-41.6036 12.0228 0.0
-44.2571 8.69846 0.0
-42.2743 6.99375 0.0
-39.6521 8.02252 0.0
20.8252 -47.4359 0.0
15.0903 -50.1343 0.0
14.3638 -50.8371 0.0
16.9522 -56.0278 0.0
18.6672 -55.8103 0.0
-17.3941 -52.5528 0.0
-14.6023 -54.7811 0.0
-10.4791 -51.3119 0.0
-10.1321 -50.7366 0.0
-11.326 -49.1574 0.0
-13.4668 -48.25 0.0
-15.1542 -47.6569 0.0
-39.2005 42.3513 0.0
-35.1083 41.42 0.0
-34.46 45.847 0.0
-35.4969 48.4861 0.0
-37.9088 47.8911 0.0
23.3023 31.756 0.0
17.932 34.6153 0.0
17.4038 29.9063 0.0
18.1681 29.6842 0.0
23.4309 30.3538 0.0
-10.701 48.8993 0.0
-8.69501 48.7093 0.0
-4.31796 51.7873 0.0
-4.39715 52.5402 0.0
-11.0962 53.6537 0.0
16.709 -17.1418 0.0
17.7637 -12.1658 0.0
15.4299 -10.8735 0.0
11.5352 -16.3994 0.0
11.5985 -16.7937 0.0
22.6517 10.4106 0.0
24.6248 6.36042 0.0
29.3717 10.2106 0.0
29.3706 10.4153 0.0
29.0155 12.185 0.0
-39.4569 -4.14685 0.0
-39.4029 -1.91366 0.0
-42.3218 -0.022409 0.0
-45.7846 -0.92654 0.0
-47.404 -3.40117 0.0
5.89979 -42.4538 0.0
6.35341 -41.9103 0.0
4.61383 -36.6808 0.0
-0.158053 -37.7381 0.0
-1.10795 -38.9659 0.0
-1.12438 -39.1629 0.0
2.80414 -41.3732 0.0
-13.5822 36.6648 0.0
-13.0545 35.641 0.0
-4.38368 41.1212 0.0
-4.0176 41.7719 0.0
-7.07354 43.157 0.0
-13.235 39.3459 0.0
-20.1804 17.6023 0.0
-21.0453 20.7042 0.0
-21.7783 21.7306 0.0
-23.0082 21.7561 0.0
-24.914 20.285 0.0
-26.0913 16.438 0.0
-24.8744 14.2841 0.0
-30.8049 -43.6368 0.0
-29.1101 -43.5471 0.0
-29.6845 -37.4278 0.0
-33.4572 -37.7264 0.0
-33.6067 -39.6361 0.0
16.7078 16.1602 0.0
16.0358 16.1961 0.0
13.3452 12.7871 0.0
16.4711 9.93079 0.0
19.3641 12.6744 0.0
17.3867 15.6559 0.0
0.949993 -55.059 0.0
1.60295 -58.6392 0.0
8.35075 -54.5731 0.0
8.73948 -53.8923 0.0
8.7099 -52.5686 0.0
7.39739 -52.6414 0.0
12.2603 -3.43057 0.0
7.15517 -1.80174 0.0
5.61964 -5.92912 0.0
5.96862 -8.347 0.0
16.733 -2.33434 0.0
21.291 -4.83799 0.0
21.6431 1.14399 0.0
20.6605 1.46528 0.0
18.4952 1.28073 0.0
26.5496 -10.6413 0.0
28.2164 -6.56333 0.0
23.0288 -8.10609 0.0
22.6113 -11.1325 0.0
23.1933 -11.666 0.0
25.9386 -11.1354 0.0
27.948 43.8148 0.0
27.8431 44.6169 0.0
25.3987 47.1461 0.0
18.6775 47.9304 0.0
17.5729 46.8274 0.0
19.9767 45.146 0.0
15.1421 -49.508 0.0
20.8769 -46.8097 0.0
21.9898 -45.8237 0.0
19.5437 -41.5245 0.0
15.6549 -44.0107 0.0
-1.55671 14.9637 0.0
-2.19292 16.0935 0.0
-3.40819 16.6397 0.0
-5.62268 16.0926 0.0
-9.64757 10.3079 0.0
-9.18771 9.2679 0.0
54.8675 3.14861 0.0
55.1773 3.04223 0.0
56.6519 2.91283 0.0
57.3075 4.33889 0.0
57.6991 8.24608 0.0
55.3789 11.3401 0.0
55.1563 11.4589 0.0
-26.6863 3.51787 0.0
-27.1864 3.25728 0.0
-27.9736 -1.83537 0.0
-27.2748 -1.98109 0.0
-23.0612 -2.50608 0.0
-22.7643 -1.81401 0.0
-23.4647 0.0806368 0.0
-4.87891 3.09862 0.0
-5.38601 0.527677 0.0
-0.815063 -2.66029 0.0
-0.656559 -2.46228 0.0
-0.151364 -0.454628 0.0
-2.12635 2.68422 0.0
-3.3045 3.34492 0.0
19.8231 11.9819 0.0
19.5899 12.0379 0.0
16.6969 9.29428 0.0
16.5036 8.86147 0.0
16.2253 8.11869 0.0
17.939 2.79493 0.0
18.3988 2.09093 0.0
20.5641 2.27548 0.0
-16.1497 42.1512 0.0
-15.1687 41.5542 0.0
-8.25244 46.4537 0.0
-9.06373 48.1125 0.0
-11.0698 48.3025 0.0
-11.6913 48.1813 0.0
-17.1643 -36.6952 0.0
-16.4882 -36.2183 0.0
-13.4567 -32.0759 0.0
-15.5777 -30.4203 0.0
-19.4228 -32.3287 0.0
33.7544 52.6723 0.0
29.2817 50.0472 0.0
33.6421 46.7422 0.0
33.8205 46.7932 0.0
34.9302 51.2796 0.0
-13.9483 33.4338 0.0
-17.7792 30.6359 0.0
-17.4034 27.3026 0.0
-14.0344 26.2116 0.0
-13.0097 27.0324 0.0
31.2206 -2.45801 0.0
32.0518 -3.37191 0.0
38.5613 -1.01708 0.0
38.7408 2.65604 0.0
35.1339 0.401438 0.0
9.23769 -54.1847 0.0
8.84895 -54.8656 0.0
6.2043 -60.9695 0.0
6.75272 -61.047 0.0
13.0036 -59.2834 0.0
13.3122 -58.9913 0.0
-8.27891 48.4333 0.0
-7.46762 46.7745 0.0
-6.67022 45.9774 0.0
0.595745 48.0443 0.0
0.603287 48.4475 0.0
-3.90185 51.5113 0.0
-25.0739 30.5214 0.0
-24.9728 29.6761 0.0
-22.9376 22.5246 0.0
-21.7078 22.4992 0.0
-19.7624 25.4182 0.0
-36.9791 -40.2873 0.0
-34.1303 -39.3433 0.0
-33.9808 -37.4336 0.0
-34.9433 -36.108 0.0
-36.3829 -34.5007 0.0
-39.0459 -35.0037 0.0
1.65228 47.7735 0.0
5.74298 45.9183 0.0
9.43198 44.3407 0.0
7.37203 48.7865 0.0
4.22625 49.9622 0.0
1.5764 48.3415 0.0
1.56886 47.9383 0.0
35.2418 0.889301 0.0
38.8487 3.1439 0.0
39.4663 4.48865 0.0
39.0437 5.82344 0.0
36.6467 6.60262 0.0
34.3307 6.05788 0.0
52.7532 -14.3533 0.0
55.5513 -19.7469 0.0
56.35 -19.5696 0.0
59.9279 -17.5792 0.0
-8.29273 -61.5015 0.0
-7.2442 -61.5998 0.0
[...]
<CellData Scalars="cell variable 4" Vectors="cell vector">
<DataArray type="Float64" NumberOfComponents="3" Name="cell vector" format="ascii">
0 0 0
0 0 0
0 0 0
0 0 0
0 0 0
0 0 0
0 0 0
0 0 0
0 0 0
0 0 0
0 0 0
0 0 0
0 0 0
0 0 0
0 0 0
0 0 0
0 0 0
0 0 0
0 0 0
0 0 0
0 0 0
0 0 0
0 0 0
0 0 0
0 0 0
0 0 0
0 0 0
0 0 0
0 0 0
0 0 0
0 0 0
0 0 0
0 0 0
0 0 0
0 0 0
0 0 0
0 0 0
0 0 0
0 0 0
0 0 0
0 0 0
0 0 0
0 0 0
0 0 0
0 0 0
0 0 0
0 0 0
0 0 0
0 0 0
0 0 0
0 0 0
0 0 0
0 0 0
0 0 0
0 0 0
0 0 0
0 0 0
0 0 0
0 0 0
0 0 0
0 0 0
0 0 0
0 0 0
0 0 0
0 0 0
0 0 0
0 0 0
0 0 0
0 0 0
0 0 0
0 0 0
0 0 0
0 0 0
0 0 0
0 0 0
0 0 0
0 0 0
0 0 0
0 0 0
0 0 0
0 0 0
0 0 0
0 0 0
0 0 0
0 0 0
0 0 0
0 0 0
0 0 0
0 0 0
0 0 0
0 0 0
0 0 0
0 0 0
0 0 0
0 0 0
0 0 0
0 0 0
0 0 0
0 0 0
0 0 0
0 0 0
0 0 0
0 0 0
0 0 0
0 0 0
0 0 0
0 0 0
0 0 0
0 0 0
0 0 0
0 0 0
0 0 0
0 0 0
0 0 0
0 0 0
0 0 0
0 0 0
0 0 0
0 0 0
0 0 0
0 0 0
0 0 0
0 0 0
0 0 0
0 0 0
0 0 0
0 0 0
0 0 0
0 0 0
0 0 0
0 0 0
0 0 0
0 0 0
0 0 0
0 0 0
0 0 0
0 0 0
0 0 0
0 0 0
0 0 0
0 0 0
0 0 0
0 0 0
0 0 0
0 0 0
0 0 0
0 0 0
0 0 0
0 0 0
0 0 0
0 0 0
0 0 0
0 0 0
0 0 0
0 0 0
0 0 0
0 0 0
0 0 0
0 0 0
0 0 0
0 0 0
0 0 0
0 0 0
0 0 0
0 0 0
0 0 0
0 0 0
0 0 0
0 0 0
0 0 0
0 0 0
0 0 0
0 0 0
0 0 0
0 0 0
0 0 0
0 0 0
0 0 0
0 0 0
0 0 0
0 0 0
0 0 0
0 0 0
0 0 0
0 0 0
0 0 0
0 0 0
0 0 0
0 0 0
0 0 0
0 0 0
0 0 0
0 0 0
0 0 0
0 0 0
0 0 0
0 0 0
0 0 0
0 0 0
0 0 0
0 0 0
0 0 0
0 0 0
0 0 0
0 0 0
0 0 0
0 0 0
0 0 0
0 0 0
0 0 0
0 0 0
0 0 0
0 0 0
0 0 0
0 0 0
0 0 0
0 0 0
0 0 0
0 0 0
0 0 0
0 0 0
0 0 0
0 0 0
0 0 0
0 0 0
0 0 0
0 0 0
0 0 0
0 0 0
0 0 0
0 0 0
0 0 0
0 0 0
0 0 0
0 0 0
0 0 0
0 0 0
0 0 0
0 0 0
0 0 0
0 0 0
0 0 0
0 0 0
0 0 0
0 0 0
0 0 0
0 0 0
0 0 0
0 0 0
0 0 0
0 0 0
0 0 0
0 0 0
0 0 0
0 0 0
0 0 0
0 0 0
0 0 0
0 0 0
0 0 0
0 0 0
0 0 0
0 0 0
0 0 0
0 0 0
0 0 0
0 0 0
0 0 0
0 0 0
0 0 0
0 0 0
0 0 0
0 0 0
0 0 0
0 0 0
0 0 0
0 0 0
0 0 0
0 0 0
0 0 0
0 0 0
0 0 0
0 0 0
0 0 0
0 0 0
0 0 0
0 0 0
0 0 0
0 0 0
0 0 0
0 0 0
0 0 0
0 0 0
0 0 0
0 0 0
0 0 0
0 0 0
0 0 0
0 0 0
0 0 0
0 0 0
0 0 0
0 0 0
0 0 0
0 0 0
0 0 0
0 0 0
0 0 0
0 0 0
0 0 0
0 0 0
0 0 0
0 0 0
0 0 0
0 0 0
0 0 0
0 0 0
0 0 0
0 0 0
0 0 0
0 0 0
0 0 0
0 0 0
0 0 0
0 0 0
0 0 0
0 0 0
0 0 0
0 0 0
0 0 0
0 0 0
0 0 0
0 0 0
0 0 0
0 0 0
0 0 0
0 0 0
0 0 0
0 0 0
0 0 0
0 0 0
0 0 0
0 0 0
0 0 0
0 0 0
0 0 0
0 0 0
0 0 0
0 0 0
0 0 0
0 0 0
0 0 0
0 0 0
0 0 0
0 0 0
0 0 0
0 0 0
0 0 0
0 0 0
0 0 0
0 0 0
0 0 0
0 0 0
0 0 0
0 0 0
0 0 0
0 0 0
0 0 0
0 0 0
0 0 0
0 0 0
0 0 0
0 0 0
0 0 0
0 0 0
0 0 0
0 0 0
0 0 0
0 0 0
0 0 0
0 0 0
0 0 0
0 0 0
0 0 0
0 0 0
0 0 0
0 0 0
0 0 0
0 0 0
0 0 0
0 0 0
0 0 0
0 0 0
0 0 0
0 0 0
0 0 0
0 0 0
0 0 0
0 0 0
0 0 0
0 0 0
0 0 0
0 0 0
0 0 0
0 0 0
0 0 0
0 0 0
0 0 0
0 0 0
0 0 0
0 0 0
</DataArray>
<DataArray type="Float64" Name="cell vector length" format="ascii">
0 0 0 0 0 0 0 0 0 0 0 0 0 0 0 0 0 0 0 0 0 0 0 0 0 0 0 0 0 0 0 0 0 0 0 0 0 0 0 0 0 0 0 0 0 0 0 0 0 0 0 0 0 0 0 0 0 0 0 0 0 0 0 0 0 0 0 0 0 0 0 0 0 0 0 0 0 0 0 0 0 0 0 0 0 0 0 0 0 0 0 0 0 0 0 0 0 0 0 0 0 0 0 0 0 0 0 0 0 0 0 0 0 0 0 0 0 0 0 0 0 0 0 0 0 0 0 0 0 0 0 0 0 0 0 0 0 0 0 0 0 0 0 0 0 0 0 0 0 0 0 0 0 0 0 0 0 0 0 0 0 0 0 0 0 0 0 0 0 0 0 0 0 0 0 0 0 0 0 0 0 0 0 0 0 0 0 0 0 0 0 0 0 0 0 0 0 0 0 0 0 0 0 0 0 0 0 0 0 0 0 0 0 0 0 0 0 0 0 0 0 0 0 0 0 0 0 0 0 0 0 0 0 0 0 0 0 0 0 0 0 0 0 0 0 0 0 0 0 0 0 0 0 0 0 0 0 0 0 0 0 0 0 0 0 0 0 0 0 0 0 0 0 0 0 0 0 0 0 0 0 0 0 0 0 0 0 0 0 0 0 0 0 0 0 0 0 0 0 0 0 0 0 0 0 0 0 0 0 0 0 0 0 0 0 0 0 0 0 0 0 0 0 0 0 0 0 0 0 0 0 0 0 0 0 0 0 0 0 0 0 0 0 0 0 0 0 0 0 0 0 0 0 0 0 0 0 0 0 0 0 0 0 0 0 0 0 0 0 0 0 0 0 0 0 0 0 0 0 0 0 0 0 0 0 0 0 0 0 0 0 0 0 0 0 0 0 0 0 0 0 0 0 0 0 0 0 0 0 0 0 
</DataArray>
<DataArray type="Float64" Name="cell variable 4" format="ascii">
0.316217 0.000510187 6.16323e-05 1.07467 0.249242 0.0032488 0.542818 0.94865 0.000319359 0.000137838 0.23011 0.479217 0.23011 1.04461 0.573608 0.000586701 0.334198 0.0032488 0.573608 0.161465 0.0032488 0.99432 0.511974 0.511974 0.000425284 0.495708 0.393381 0.00403603 0.0824302 0.163146 0.332003 0.626025 0.980966 3.42138e-05 0.437452 0.161465 0.36504 0.184973 0.00760007 4.69927e-06 0.252014 0.179448 0.187543 0.179448 0.000160982 0.000319359 0.000137838 0.434405 0.000705084 0.657465 0.848855 0.23011 0.442722 0.33356 0.673042 0.136507 1.06245 0.000237451 1.11547 0.912892 0.573608 0.161465 0.187543 1.07467 0.0032488 0.542818 1.12037 0.848855 0.130161 0.393247 4.18495e-05 0.503886 0.45141 0.000237451 0.0976075 0.371127 0.000116047 0.0505895 0.45141 1.61534e-05 5.26566e-05 0.00103121 0.495708 0.0032488 0.118662 4.61276e-06 0.0824302 1.10185 1.14226 0.371127 0.184973 0.708918 5.26566e-05 0.000160982 4.42555e-05 0.00273317 0.118662 0.919422 0.00103121 0.163146 0.503886 1.04461 0.249242 0.313432 0.631062 0.919422 0.479217 0.0978407 0.434405 0.912892 0.542818 0.00370628 0.000157331 0.673042 0.184059 0.334198 0.542818 6.16323e-05 0.000116047 0.789941 0.00403603 0.153908 0.399988 0.343308 0.393381 0.000425284 0.179448 0.573608 0.99432 0.000705084 0.514292 0.153908 0.789941 0.000705084 0.66381 0.136507 0.50937 4.61276e-06 1.04461 0.0505895 0.184973 1.00681 1.12037 0.393247 0.187543 1.61534e-05 0.66381 1.5044e-05 0.32239 8.68069e-05 0.0773391 0.980966 0.00151096 0.919422 1.00681 0.161465 0.23011 0.790107 0.542818 0.000237451 3.42138e-05 0.94865 0.848855 0.136507 0.187543 0.763876 0.657465 0.0505895 0.184973 0.36504 0.27464 0.184973 0.00403603 0.371127 0.163146 0.313432 1.00681 1.00681 0.130161 0.0824302 1.12037 0.179448 0.00760007 0.000331293 0.00103121 0.437452 0.657465 1.11547 0.313432 0.136507 1.23799e-05 0.0646441 1.07467 5.26566e-05 0.50937 0.000209614 0.94865 0.0773391 0.8063 4.18495e-05 0.790107 0.393247 0.161465 1.55471e-05 0.631062 0.50937 0.45141 0.00760007 8.68069e-05 0.442722 0.514292 0.000157331 0.631062 0.495708 0.0773391 0.153908 0.316217 0.136507 0.184973 1.23799e-05 0.252014 0.316217 0.434405 0.00145277 0.000306373 0.8063 0.000331293 0.332003 0.0978407 0.763876 4.42555e-05 0.90618 0.27464 0.187543 0.000510187 0.0646441 1.10185 0.479217 0.00370628 0.631062 0.184059 4.69927e-06 0.343308 0.32239 0.000306373 0.399988 0.90618 0.736473 0.153908 0.0032488 0.00760007 0.393247 0.626025 0.36504 0.316217 0.763876 1.10185 0.27464 0.0097703 0.000705084 0.32239 0.514292 0.184059 0.45141 0.000209614 0.27464 0.0978407 0.0505895 0.437452 0.919422 0.000319359 0.789941 0.136507 0.542818 1.61534e-05 0.000586701 0.136507 0.631062 0.184973 0.0505895 0.187543 3.42138e-05 0.00370628 0.00103121 0.000116047 0.000157331 0.00760007 0.343308 0.50937 0.0097703 0.0505895 0.23011 0.00151096 0.0978407 0.332003 0.0032488 0.000319359 0.184973 0.66381 0.673042 0.912892 0.790107 0.153908 0.179448 0.0646441 0.118662 0.000160982 0.00145277 0.000510187 0.90618 0.631062 0.542818 1.12037 1.07467 0.912892 0.153908 0.130161 1.11547 0.980966 0.8063 0.0824302 0.32239 0.161465 0.399988 0.332003 0.118662 0.153908 1.14226 0.00103121 0.33356 0.163146 8.33062e-06 0.708918 5.26566e-05 0.626025 5.96913e-06 0.90618 0.495708 0.36504 0.118662 0.542818 0.249242 0.000425284 0.393381 0.000425284 1.06245 0.187543 0.848855 0.000510187 0.434405 0.657465 0.573608 0.919422 0.442722 0.399988 0.252014 0.000137838 0.8063 0.00273317 1.14226 0.000237451 0.343308 6.16323e-05 1.23799e-05 0.919422 0.763876 0.00145277 0.313432 0.789941 1.11547 0.000116047 0.442722 0.0773391 1.10185 3.42138e-05 0.790107 0.136507 0.184059 0.673042 0.00370628 0.66381 0.000160982 1.06245 0.514292 0.0976075 0.00151096 0.252014 0.249242 1.14226 0.000157331 0.626025 1.04461 0.179448 0.371127 0.334198 8.33062e-06 0.00151096 0.511974 1.06245 0.161465 0.0505895 0.736473 0.0646441 4.42555e-05 0.511974 0.130161 0.23011 0.334198 0.23011 0.000160982 0.000157331 
</DataArray>
<DataArray type="Float64" Name="cell variable 5" format="ascii">
0.0909148 0.999974 1 0.00858434 0.138655 0.998946 0.0328244 0.0109898 0.99999 0.999998 0.158855 0.0417277 0.158855 0.00908091 0.0294962 0.999966 0.082177 0.998946 0.0294962 0.277231 0.998946 0.0100133 0.0367488 0.0367488 0.999982 0.0391044 0.0606986 0.998374 0.595425 0.273099 0.0831765 0.0248813 0.0102849 1 0.0496613 0.277231 0.0698059 0.226167 0.994257 1 0.136034 0.236958 0.221374 0.236958 0.999997 0.99999 0.999998 0.0503251 0.99995 0.0226112 0.0136882 0.158855 0.0485429 0.0824658 0.021599 0.349234 0.00878122 0.999994 0.00797274 0.0118572 0.0294962 0.277231 0.221374 0.00858434 0.998946 0.0328244 0.00790366 0.0136882 0.371169 0.0607373 1 0.037893 0.0467791 0.999994 0.512105 0.0676886 0.999999 0.796223 0.0467791 1 1 0.999894 0.0391044 0.998946 0.415271 1 0.595425 0.00816951 0.00760594 0.0676886 0.226167 0.0195097 1 0.999997 1 0.999254 0.415271 0.0116913 0.999894 0.273099 0.037893 0.00908091 0.138655 0.0923878 0.0244954 0.0116913 0.0417277 0.510913 0.0503251 0.0118572 0.0328244 0.998628 0.999998 0.021599 0.227907 0.082177 0.0328244 1 0.999999 0.0157727 0.998374 0.296844 0.0588268 0.0782104 0.0606986 0.999982 0.236958 0.0294962 0.0100133 0.99995 0.0364304 0.296844 0.0157727 0.99995 0.0221905 0.349234 0.0371116 1 0.00908091 0.796223 0.226167 0.00976872 0.00790366 0.0607373 0.221374 1 0.0221905 1 0.0877689 0.999999 0.62573 0.0102849 0.999772 0.0116913 0.00976872 0.277231 0.158855 0.0157662 0.0328244 0.999994 1 0.0109898 0.0136882 0.349234 0.221374 0.016849 0.0226112 0.796223 0.226167 0.0698059 0.117059 0.226167 0.998374 0.0676886 0.273099 0.0923878 0.00976872 0.00976872 0.371169 0.595425 0.00790366 0.236958 0.994257 0.999989 0.999894 0.0496613 0.0226112 0.00797274 0.0923878 0.349234 1 0.705275 0.00858434 1 0.0371116 0.999996 0.0109898 0.62573 0.0151488 1 0.0157662 0.0607373 0.277231 1 0.0244954 0.0371116 0.0467791 0.994257 0.999999 0.0485429 0.0364304 0.999998 0.0244954 0.0391044 0.62573 0.296844 0.0909148 0.349234 0.226167 1 0.136034 0.0909148 0.0503251 0.999789 0.999991 0.0151488 0.999989 0.0831765 0.510913 0.016849 1 0.0120314 0.117059 0.221374 0.999974 0.705275 0.00816951 0.0417277 0.998628 0.0244954 0.227907 1 0.0782104 0.0877689 0.999991 0.0588268 0.0120314 0.0181031 0.296844 0.998946 0.994257 0.0607373 0.0248813 0.0698059 0.0909148 0.016849 0.00816951 0.117059 0.990544 0.99995 0.0877689 0.0364304 0.227907 0.0467791 0.999996 0.117059 0.510913 0.796223 0.0496613 0.0116913 0.99999 0.0157727 0.349234 0.0328244 1 0.999966 0.349234 0.0244954 0.226167 0.796223 0.221374 1 0.998628 0.999894 0.999999 0.999998 0.994257 0.0782104 0.0371116 0.990544 0.796223 0.158855 0.999772 0.510913 0.0831765 0.998946 0.99999 0.226167 0.0221905 0.021599 0.0118572 0.0157662 0.296844 0.236958 0.705275 0.415271 0.999997 0.999789 0.999974 0.0120314 0.0244954 0.0328244 0.00790366 0.00858434 0.0118572 0.296844 0.371169 0.00797274 0.0102849 0.0151488 0.595425 0.0877689 0.277231 0.0588268 0.0831765 0.415271 0.296844 0.00760594 0.999894 0.0824658 0.273099 1 0.0195097 1 0.0248813 1 0.0120314 0.0391044 0.0698059 0.415271 0.0328244 0.138655 0.999982 0.0606986 0.999982 0.00878122 0.221374 0.0136882 0.999974 0.0503251 0.0226112 0.0294962 0.0116913 0.0485429 0.0588268 0.136034 0.999998 0.0151488 0.999254 0.00760594 0.999994 0.0782104 1 1 0.0116913 0.016849 0.999789 0.0923878 0.0157727 0.00797274 0.999999 0.0485429 0.62573 0.00816951 1 0.0157662 0.349234 0.227907 0.021599 0.998628 0.0221905 0.999997 0.00878122 0.0364304 0.512105 0.999772 0.136034 0.138655 0.00760594 0.999998 0.0248813 0.00908091 0.236958 0.0676886 0.082177 1 0.999772 0.0367488 0.00878122 0.277231 0.796223 0.0181031 0.705275 1 0.0367488 0.371169 0.158855 0.082177 0.158855 0.999997 0.999998 
</DataArray>
<DataArray type="Float64" Name="cell variable 6" format="ascii">
0.0038835 1.00883 1.00913 5.3719e-06 0.0566856 1.00681 0.000251962 1.10661e-05 1.00896 1.00908 0.0671729 0.00051123 0.0671729 6.33494e-06 0.000187165 1.00878 0.00576492 1.00681 0.000187165 0.298329 1.00681 8.43313e-06 0.00035504 0.00035504 1.00889 0.000410215 0.00151522 1.00605 0.752638 0.294057 0.00364689 0.000115922 9.11938e-06 1.00915 0.000885689 0.298329 0.0019794 0.208208 1.00277 1.00917 0.0441278 0.235078 0.185318 0.235078 1.00907 1.00896 1.00908 0.000857904 1.0087 8.84138e-05 2.09522e-05 0.0671729 0.000858618 0.00403961 7.76673e-05 0.432355 5.74138e-06 1.00902 4.32387e-06 1.38076e-05 0.000187165 0.298329 0.185318 5.3719e-06 1.00681 0.000251962 4.21468e-06 2.09522e-05 0.477444 0.00202135 1.00915 0.000380196 0.000696942 1.00902 0.67289 0.0019189 1.0091 0.900072 0.000696942 1.00916 1.00914 1.00849 0.000410215 1.00681 0.533485 1.00917 0.752638 4.64493e-06 3.76475e-06 0.0019189 0.208208 5.81379e-05 1.00914 1.00907 1.00914 1.00716 0.533485 1.32528e-05 1.00849 0.294057 0.000380196 6.33494e-06 0.0566856 0.00439847 0.000110922 1.32528e-05 0.00051123 0.674122 0.000857904 1.38076e-05 0.000251962 1.00642 1.00907 7.76673e-05 0.235443 0.00576492 0.000251962 1.00913 1.0091 3.156e-05 1.00605 0.3398 0.00127682 0.00310284 0.00151522 1.00889 0.235078 0.000187165 8.43313e-06 1.0087 0.000349016 0.3398 3.156e-05 1.0087 8.3838e-05 0.432355 0.000394946 1.00917 6.33494e-06 0.900072 0.208208 7.8448e-06 4.21468e-06 0.00202135 0.185318 1.00916 8.3838e-05 1.00916 0.00628005 1.00912 0.780596 9.11938e-06 1.00816 1.32528e-05 7.8448e-06 0.298329 0.0671729 3.15261e-05 0.000251962 1.00902 1.00915 1.10661e-05 2.09522e-05 0.432355 0.185318 3.81646e-05 8.84138e-05 0.900072 0.208208 0.0019794 0.02163 0.208208 1.00605 0.0019189 0.294057 0.00439847 7.8448e-06 7.8448e-06 0.477444 0.752638 4.21468e-06 0.235078 1.00277 1.00895 1.00849 0.000885689 8.84138e-05 4.32387e-06 0.00439847 0.432355 1.00917 0.841792 5.3719e-06 1.00914 0.000394946 1.00904 1.10661e-05 0.780596 2.80904e-05 1.00915 3.15261e-05 0.00202135 0.298329 1.00916 0.000110922 0.000394946 0.000696942 1.00277 1.00912 0.000858618 0.000349016 1.00907 0.000110922 0.000410215 0.780596 0.3398 0.0038835 0.432355 0.208208 1.00917 0.0441278 0.0038835 0.000857904 1.00814 1.00897 2.80904e-05 1.00895 0.00364689 0.674122 3.81646e-05 1.00914 1.4406e-05 0.02163 0.185318 1.00883 0.841792 4.64493e-06 0.00051123 1.00642 0.000110922 0.235443 1.00917 0.00310284 0.00628005 1.00897 0.00127682 1.4406e-05 4.69278e-05 0.3398 1.00681 1.00277 0.00202135 0.000115922 0.0019794 0.0038835 3.81646e-05 4.64493e-06 0.02163 1.00014 1.0087 0.00628005 0.000349016 0.235443 0.000696942 1.00904 0.02163 0.674122 0.900072 0.000885689 1.32528e-05 1.00896 3.156e-05 0.432355 0.000251962 1.00916 1.00878 0.432355 0.000110922 0.208208 0.900072 0.185318 1.00915 1.00642 1.00849 1.0091 1.00907 1.00277 0.00310284 0.000394946 1.00014 0.900072 0.0671729 1.00816 0.674122 0.00364689 1.00681 1.00896 0.208208 8.3838e-05 7.76673e-05 1.38076e-05 3.15261e-05 0.3398 0.235078 0.841792 0.533485 1.00907 1.00814 1.00883 1.4406e-05 0.000110922 0.000251962 4.21468e-06 5.3719e-06 1.38076e-05 0.3398 0.477444 4.32387e-06 9.11938e-06 2.80904e-05 0.752638 0.00628005 0.298329 0.00127682 0.00364689 0.533485 0.3398 3.76475e-06 1.00849 0.00403961 0.294057 1.00917 5.81379e-05 1.00914 0.000115922 1.00917 1.4406e-05 0.000410215 0.0019794 0.533485 0.000251962 0.0566856 1.00889 0.00151522 1.00889 5.74138e-06 0.185318 2.09522e-05 1.00883 0.000857904 8.84138e-05 0.000187165 1.32528e-05 0.000858618 0.00127682 0.0441278 1.00908 2.80904e-05 1.00716 3.76475e-06 1.00902 0.00310284 1.00913 1.00917 1.32528e-05 3.81646e-05 1.00814 0.00439847 3.156e-05 4.32387e-06 1.0091 0.000858618 0.780596 4.64493e-06 1.00915 3.15261e-05 0.432355 0.235443 7.76673e-05 1.00642 8.3838e-05 1.00907 5.74138e-06 0.000349016 0.67289 1.00816 0.0441278 0.0566856 3.76475e-06 1.00907 0.000115922 6.33494e-06 0.235078 0.0019189 0.00576492 1.00917 1.00816 0.00035504 5.74138e-06 0.298329 0.900072 4.69278e-05 0.841792 1.00914 0.00035504 0.477444 0.0671729 0.00576492 0.0671729 1.00907 1.00907 
</DataArray>
<DataArray type="Float64" Name="cell variable 7" format="ascii">
0.357275 0.805214 0.804393 0.0863829 0.413855 0.731648 0.214434 0.109939 0.786592 0.818915 0.46057 0.24144 0.46057 0.091923 0.203114 0.789622 0.334908 0.731648 0.203114 0.543895 0.731648 0.10127 0.2268 0.2268 0.777768 0.233945 0.290041 0.781706 0.652741 0.531783 0.340125 0.185875 0.103782 0.881455 0.262734 0.543895 0.311423 0.488241 0.695937 0.865788 0.422896 0.481302 0.511928 0.481302 0.804465 0.786592 0.818915 0.264653 0.790771 0.176526 0.129973 0.46057 0.259721 0.337987 0.172124 0.58017 0.0886341 0.815305 0.0788486 0.116913 0.203114 0.543895 0.511928 0.0863829 0.731648 0.214434 0.0779382 0.129973 0.557964 0.288948 0.828165 0.230311 0.255368 0.815305 0.58928 0.306453 0.821805 0.667622 0.255368 0.855098 0.808066 0.74517 0.233945 0.731648 0.633332 0.89681 0.652741 0.0813708 0.0738515 0.306453 0.488241 0.162493 0.808066 0.804465 0.85435 0.786302 0.633332 0.115625 0.74517 0.531783 0.230311 0.091923 0.413855 0.360012 0.184332 0.115625 0.24144 0.570965 0.264653 0.116913 0.214434 0.736426 0.802201 0.172124 0.426674 0.334908 0.214434 0.804393 0.821805 0.142859 0.781706 0.544906 0.285858 0.329428 0.290041 0.777768 0.481302 0.203114 0.10127 0.790771 0.225806 0.544906 0.142859 0.790771 0.174715 0.58017 0.227704 0.89681 0.091923 0.667622 0.488241 0.0989326 0.0779382 0.288948 0.511928 0.855098 0.174715 0.867885 0.347352 0.812727 0.646851 0.103782 0.723507 0.115625 0.0989326 0.543895 0.46057 0.142821 0.214434 0.815305 0.881455 0.109939 0.129973 0.58017 0.511928 0.148901 0.176526 0.667622 0.488241 0.311423 0.399197 0.488241 0.781706 0.306453 0.531783 0.360012 0.0989326 0.0989326 0.557964 0.652741 0.0779382 0.481302 0.695937 0.823381 0.74517 0.262734 0.176526 0.0788486 0.360012 0.58017 0.864126 0.663687 0.0863829 0.808066 0.227704 0.803638 0.109939 0.646851 0.139181 0.828165 0.142821 0.288948 0.543895 0.87201 0.184332 0.227704 0.255368 0.695937 0.812727 0.259721 0.225806 0.802201 0.184332 0.233945 0.646851 0.544906 0.357275 0.58017 0.488241 0.864126 0.422896 0.357275 0.264653 0.822606 0.774006 0.139181 0.823381 0.340125 0.570965 0.148901 0.85435 0.118245 0.399197 0.511928 0.805214 0.663687 0.0813708 0.24144 0.736426 0.184332 0.426674 0.865788 0.329428 0.347352 0.774006 0.285858 0.118245 0.15552 0.544906 0.731648 0.695937 0.288948 0.185875 0.311423 0.357275 0.148901 0.0813708 0.399197 0.724735 0.790771 0.347352 0.225806 0.426674 0.255368 0.803638 0.399197 0.570965 0.667622 0.262734 0.115625 0.786592 0.142859 0.58017 0.214434 0.855098 0.789622 0.58017 0.184332 0.488241 0.667622 0.511928 0.881455 0.736426 0.74517 0.821805 0.802201 0.695937 0.329428 0.227704 0.724735 0.667622 0.46057 0.723507 0.570965 0.340125 0.731648 0.786592 0.488241 0.174715 0.172124 0.116913 0.142821 0.544906 0.481302 0.663687 0.633332 0.804465 0.822606 0.805214 0.118245 0.184332 0.214434 0.0779382 0.0863829 0.116913 0.544906 0.557964 0.0788486 0.103782 0.139181 0.652741 0.347352 0.543895 0.285858 0.340125 0.633332 0.544906 0.0738515 0.74517 0.337987 0.531783 0.869271 0.162493 0.808066 0.185875 0.876672 0.118245 0.233945 0.311423 0.633332 0.214434 0.413855 0.777768 0.290041 0.777768 0.0886341 0.511928 0.129973 0.805214 0.264653 0.176526 0.203114 0.115625 0.259721 0.285858 0.422896 0.818915 0.139181 0.786302 0.0738515 0.815305 0.329428 0.804393 0.864126 0.115625 0.148901 0.822606 0.360012 0.142859 0.0788486 0.821805 0.259721 0.646851 0.0813708 0.881455 0.142821 0.58017 0.426674 0.172124 0.736426 0.174715 0.804465 0.0886341 0.225806 0.58928 0.723507 0.422896 0.413855 0.0738515 0.802201 0.185875 0.091923 0.481302 0.306453 0.334908 0.869271 0.723507 0.2268 0.0886341 0.543895 0.667622 0.15552 0.663687 0.85435 0.2268 0.557964 0.46057 0.334908 0.46057 0.804465 0.802201 
</DataArray>
<DataArray type="Float64" Name="cell variable 8" format="ascii">