<VTKFile type="UnstructuredGrid" version="0.1">
<UnstructuredGrid>
<Piece  NumberOfPoints="    1700" NumberOfCells="     284">
<Points>
<DataArray type="Float64" NumberOfComponents="3" format="ascii">
14.7526 -13.1892 0.0
15.5004 -10.9571 0.0
14.0161 -10.1489 0.0
11.5915 -9.33413 0.0
10.0778 -11.0855 0.0
13.1125 -15.6364 0.0
13.9172 -15.3517 0.0
19.2985 -21.5057 0.0
18.7046 -18.7455 0.0
15.834 -18.6679 0.0
12.6654 -21.7484 0.0
16.001 -25.123 0.0
17.7495 -23.6186 0.0
21.7074 -29.1975 0.0
20.4456 -32.3934 0.0
23.357 -32.3251 0.0
27.3957 -26.0959 0.0
27.1352 -25.3273 0.0
24.1907 -27.1065 0.0
-37.4009 16.1678 0.0
-34.4168 15.6129 0.0
-32.1141 19.0189 0.0
-35.6521 21.7616 0.0
-36.3329 20.6188 0.0
20.004 -2.33287 0.0
20.3403 -4.09594 0.0
23.3817 -2.78664 0.0
23.7545 1.71147 0.0
19.7353 1.99508 0.0
24.5301 6.39043 0.0
24.164 1.90155 0.0
23.7912 -2.59656 0.0
26.4416 -4.01673 0.0
27.9364 -0.0943765 0.0
27.3345 3.48626 0.0
26.0369 6.80573 0.0
7.98768 36.7288 0.0
4.76169 35.3708 0.0
4.2838 33.271 0.0
5.68589 32.6126 0.0
8.03857 31.3504 0.0
9.92882 33.3734 0.0
11.6575 35.5247 0.0
10.6077 36.037 0.0
-15.5622 -39.7915 0.0
-19.0936 -38.6035 0.0
-22.7324 -40.7186 0.0
-19.6749 -43.0712 0.0
-11.268 -23.6857 0.0
-13.07 -26.138 0.0
-10.7344 -28.5471 0.0
-7.55116 -29.5845 0.0
-6.75272 -28.1367 0.0
-17.7448 24.1662 0.0
-20.3156 23.2245 0.0
-22.2232 19.6405 0.0
-22.4789 19.0358 0.0
-18.9764 16.5626 0.0
-16.2396 19.2205 0.0
-38.7286 -25.6495 0.0
-35.9211 -21.8179 0.0
-36.7518 -19.6835 0.0
-39.3725 -17.0939 0.0
-42.3884 -20.0841 0.0
-41.2432 -22.8048 0.0
-12.8718 -10.2824 0.0
-13.6324 -6.57918 0.0
-17.3549 -4.69335 0.0
-19.1809 -7.19749 0.0
-21.5526 24.9702 0.0
-20.1396 23.8802 0.0
-17.5688 24.8219 0.0
-14.9796 25.7191 0.0
-12.5576 28.8181 0.0
-16.2174 29.286 0.0
-19.8135 28.3135 0.0
0.418215 -8.62577 0.0
1.26305 -7.90167 0.0
1.7453 -5.80618 0.0
-1.17791 -3.42261 0.0
-4.0524 -2.9242 0.0
-5.8125 -4.88043 0.0
20.2291 -37.569 0.0
23.8701 -36.0596 0.0
25.1756 -34.8284 0.0
23.1077 -32.9036 0.0
20.1963 -32.9718 0.0
18.8343 -34.4646 0.0
17.2723 -35.8127 0.0
-23.8508 -5.4956 0.0
-28.5142 -9.07485 0.0
-26.4838 -11.573 0.0
-25.7527 -11.5017 0.0
-22.8538 -8.92112 0.0
-9.23595 15.5742 0.0
-7.64745 17.198 0.0
-6.11723 18.7576 0.0
-8.5953 20.7551 0.0
-12.3889 16.2052 0.0
40.0916 -12.5125 0.0
41.2687 -10.0021 0.0
41.241 -7.05302 0.0
40.4305 -5.03711 0.0
39.4021 -5.73862 0.0
37.5544 -7.78679 0.0
36.998 -10.9863 0.0
-3.95973 46.7573 0.0
2.40815 44.5367 0.0
3.6214 46.8353 0.0
2.34165 47.1198 0.0
-2.62293 47.2123 0.0
9.41656 22.75 0.0
8.27025 22.069 0.0
6.73263 21.0134 0.0
9.37468 18.632 0.0
12.1705 16.3162 0.0
15.0643 17.7527 0.0
12.9546 20.9328 0.0
11.9581 21.5523 0.0
-33.6327 9.76435 0.0
-34.3635 6.52786 0.0
-31.9035 3.39605 0.0
-30.1415 6.18158 0.0
-31.6805 12.0805 0.0
-33.0919 11.1901 0.0
-29.3378 22.7807 0.0
-29.0472 25.8895 0.0
-32.9545 25.2931 0.0
-35.3388 22.2215 0.0
-31.8008 19.4789 0.0
12.1918 14.698 0.0
10.4781 11.8746 0.0
12.1187 8.32806 0.0
13.8527 7.54228 0.0
14.8497 8.48337 0.0
16.2039 10.3134 0.0
29.3099 -26.1425 0.0
30.1552 -26.7997 0.0
36.4503 -20.2973 0.0
36.6144 -18.9128 0.0
35.1777 -18.3527 0.0
-12.6851 49.7918 0.0
-15.5024 46.956 0.0
-16.8067 44.9782 0.0
-14.3995 45.018 0.0
-10.9094 45.5444 0.0
-11.6441 50.333 0.0
4.84776 -41.6272 0.0
7.086 -38.8318 0.0
4.06747 -36.6115 0.0
1.2185 -36.6493 0.0
-1.2549 -41.311 0.0
1.20753 -42.3503 0.0
-13.2405 7.98505 0.0
-12.3365 9.57746 0.0
-15.9531 12.8443 0.0
-18.1611 10.0353 0.0
-17.8952 7.88233 0.0
44.8732 -16.0624 0.0
45.1397 -11.9096 0.0
41.5825 -10.4837 0.0
40.4053 -12.994 0.0
39.2484 -15.5129 0.0
42.0056 -16.4557 0.0
-39.6228 9.25312 0.0
-34.0847 10.2258 0.0
-33.544 11.6516 0.0
-34.5926 15.0011 0.0
-37.5767 15.5559 0.0
-39.7745 12.3718 0.0
15.4715 -18.381 0.0
13.8951 -16.0045 0.0
13.0904 -16.2892 0.0
10.299 -17.3929 0.0
10.8065 -19.4197 0.0
11.4159 -21.8559 0.0
12.3029 -21.4615 0.0
12.5029 41.2189 0.0
15.1137 40.4251 0.0
11.433 45.1042 0.0
8.0625 45.1316 0.0
9.86411 41.9956 0.0
-1.5171 12.8874 0.0
4.72599 10.7777 0.0
6.27171 13.4393 0.0
4.82876 14.5254 0.0
1.87903 15.6785 0.0
-1.57477 13.9979 0.0
4.5922 10.4168 0.0
-1.65089 12.5265 0.0
-1.42653 8.25609 0.0
1.53588 7.57674 0.0
3.22849 7.15963 0.0
4.34543 9.85169 0.0
-33.4296 -28.1449 0.0
-32.4501 -27.0119 0.0
-34.015 -24.6463 0.0
-35.5464 -22.2881 0.0
-38.3539 -26.1197 0.0
-35.4147 -28.623 0.0
-14.0345 -14.1074 0.0
-11.3341 -17.4105 0.0
-7.50118 -14.391 0.0
-9.01722 -13.2987 0.0
-11.917 -12.3212 0.0
-12.1016 29.1975 0.0
-10.065 30.2939 0.0
-8.70985 31.1277 0.0
-15.1705 32.1474 0.0
-15.7615 29.6654 0.0
-37.5685 -9.25438 0.0
-40.1457 -7.35299 0.0
-41.0793 -9.10092 0.0
-40.5052 -12.0423 0.0
-39.9487 -14.5541 0.0
-36.0191 -12.881 0.0
-2.39148 -24.7113 0.0
-1.81865 -24.8258 0.0
2.55211 -22.9804 0.0
2.55265 -22.8494 0.0
2.53894 -21.6637 0.0
-1.16216 -20.631 0.0
-2.88196 -20.1188 0.0
-21.8996 -16.6579 0.0
-17.9294 -16.1845 0.0
-17.8489 -14.0173 0.0
-20.7713 -10.6416 0.0
-22.4511 -9.37776 0.0
-25.35 -11.9584 0.0
27.4965 10.7027 0.0
26.3995 7.43742 0.0
27.6971 4.11795 0.0
32.9918 6.24589 0.0
31.5763 9.73142 0.0
12.4876 15.02 0.0
16.4997 10.6354 0.0
19.5151 12.423 0.0
18.0502 15.599 0.0
15.5687 17.1964 0.0
12.6749 15.7598 0.0
-5.08964 -33.8732 0.0
-4.6185 -31.6879 0.0
-7.44761 -30.0936 0.0
-10.6309 -29.0562 0.0
-12.1608 -30.7696 0.0
-13.4287 -32.6022 0.0
-10.5691 -34.2482 0.0
-35.3902 -31.8579 0.0
-35.6395 -28.8513 0.0
-38.5787 -26.3481 0.0
-41.0933 -23.5033 0.0
-39.2854 -27.15 0.0
-37.5321 -29.6575 0.0
26.0368 -38.4047 0.0
19.0271 -42.0339 0.0
17.9911 -44.3967 0.0
20.3783 -43.4791 0.0
24.9516 -40.9834 0.0
27.7153 -39.0051 0.0
15.4992 -25.5097 0.0
12.1636 -22.1351 0.0
11.2765 -22.5295 0.0
7.60973 -24.4975 0.0
8.28491 -27.762 0.0
10.4613 -28.0201 0.0
14.0177 -27.1481 0.0
43.7468 10.4225 0.0
41.8572 14.4741 0.0
40.3935 14.368 0.0
38.2932 14.142 0.0
38.8157 10.4466 0.0
39.1881 8.75708 0.0
43.9947 7.47685 0.0
-39.6321 8.75658 0.0
-38.9914 5.66546 0.0
-36.1127 4.45517 0.0
-34.8249 6.49279 0.0
-34.094 9.72928 0.0
6.92607 13.6206 0.0
10.0657 12.3028 0.0
11.7794 15.1263 0.0
11.9668 15.8661 0.0
9.17089 18.1819 0.0
5.48311 14.7067 0.0
34.8175 30.0675 0.0
32.1429 31.8077 0.0
32.5294 29.8099 0.0
33.1541 27.999 0.0
35.7646 25.0171 0.0
38.8421 23.112 0.0
38.247 24.7413 0.0
36.7486 27.46 0.0
-9.96664 -47.0342 0.0
-6.10869 -48.7038 0.0
-4.20284 -49.1391 0.0
-1.38402 -48.7613 0.0
-4.53211 -44.6328 0.0
-7.48965 -44.3961 0.0
-21.5146 31.4209 0.0
-24.1207 30.4532 0.0
-27.1341 27.5256 0.0
-24.6417 23.6027 0.0
-22.1546 25.06 0.0
-20.4155 28.4034 0.0
-20.573 31.5936 0.0
-23.6793 -3.05955 0.0
-23.407 -5.09424 0.0
-22.41 -8.51975 0.0
-20.7301 -9.78358 0.0
-19.7004 -6.94302 0.0
-17.8744 -4.43888 0.0
-19.5695 -1.30591 0.0
-20.5168 -0.329715 0.0
0.427874 -15.4907 0.0
-0.877555 -20.2159 0.0
2.82354 -21.2486 0.0
5.95109 -17.8524 0.0
4.90931 -16.2152 0.0
2.65146 -16.0369 0.0
-2.72151 21.3294 0.0
-5.62853 18.8475 0.0
-7.15875 17.2879 0.0
-5.31895 16.1723 0.0
-1.1006 20.9528 0.0
0.766164 -36.55 0.0
-0.401356 -36.3295 0.0
-1.83184 -36.066 0.0
-4.14597 -40.0214 0.0
-1.70724 -41.2118 0.0
-41.3486 10.649 0.0
-42.3873 6.3622 0.0
-41.3457 3.29385 0.0
-39.3963 5.66451 0.0
-40.0369 8.75563 0.0
-40.1887 11.8743 0.0
4.75223 5.40919 0.0
8.26465 4.25108 0.0
10.0279 6.01107 0.0
4.88871 9.54056 0.0
3.77178 6.84849 0.0
-0.0902077 36.4618 0.0
-3.73617 37.3217 0.0
-4.03113 37.1828 0.0
-4.19922 32.0309 0.0
-1.9825 31.8083 0.0
0.672011 32.6764 0.0
0.532582 36.2837 0.0
-0.706396 -3.12525 0.0
2.21681 -5.50883 0.0
6.73038 -3.7888 0.0
7.11616 -2.30228 0.0
2.34132 0.770205 0.0
0.276351 -0.932408 0.0
8.92166 0.325386 0.0
7.81466 -2.31833 0.0
7.42888 -3.80485 0.0
8.19345 -4.25905 0.0
10.791 -5.43656 0.0
13.178 -1.90612 0.0
10.9392 -1.07149 0.0
13.5527 -2.17755 0.0
11.1657 -5.70799 0.0
11.6787 -8.6626 0.0
14.1032 -9.4774 0.0
16.7094 -2.50127 0.0
14.3655 -1.43527 0.0
-44.8882 -0.532665 0.0
-41.1269 -0.16107 0.0
-41.5656 2.77553 0.0
-42.6072 5.84388 0.0
-44.5426 3.97243 0.0
-31.823 -27.5167 0.0
-32.8025 -28.6496 0.0
-28.1536 -33.9007 0.0
-25.1228 -33.8996 0.0
-26.6439 -32.0109 0.0
-27.9522 -29.8788 0.0
1.48912 -47.0301 0.0
-0.674631 -48.9077 0.0
-3.49346 -49.2855 0.0
-1.48289 -49.4488 0.0
1.91273 -48.9819 0.0
4.95842 -47.9228 0.0
21.3356 17.7917 0.0
23.3756 18.0992 0.0
22.5473 22.2694 0.0
20.5602 23.8129 0.0
17.9737 25.2129 0.0
16.324 22.8483 0.0
-12.3263 -4.90915 0.0
-11.8036 -4.4551 0.0
-11.3508 -1.5692 0.0
-12.6445 1.47558 0.0
-15.799 0.308876 0.0
-16.3686 0.00896204 0.0
-1.34261 -2.94018 0.0
-0.359861 -0.747341 0.0
-2.82581 0.783623 0.0
-5.20598 2.22719 0.0
-5.81864 -0.792615 0.0
-4.2171 -2.44177 0.0
-13.9361 -32.9215 0.0
-16.7904 -31.7536 0.0
-17.7771 -34.4961 0.0
-17.8842 -34.8019 0.0
-12.1656 -38.6203 0.0
-10.613 -38.1325 0.0
-11.0765 -34.5675 0.0
-29.1878 -22.9993 0.0
-30.3398 -21.7693 0.0
-33.4623 -24.6185 0.0
-31.8975 -26.9841 0.0
-28.0266 -29.3463 0.0
-26.3491 -26.9303 0.0
24.5355 -26.3351 0.0
27.48 -24.5559 0.0
30.2627 -20.5369 0.0
29.3837 -17.1643 0.0
27.2137 -18.4786 0.0
25.2548 -20.3148 0.0
24.7008 -23.3573 0.0
13.3011 21.4496 0.0
15.7628 23.1792 0.0
17.4125 25.5438 0.0
15.4014 27.4755 0.0
13.3096 27.8029 0.0
12.3046 22.0691 0.0
37.2624 -7.12908 0.0
39.11 -5.08092 0.0
37.176 2.42558 0.0
34.8602 2.26167 0.0
34.4244 -1.08052 0.0
34.5294 -5.44102 0.0
44.4843 3.67422 0.0
45.6415 0.728512 0.0
47.4684 -1.43591 0.0
47.5599 2.12063 0.0
46.7099 6.44213 0.0
45.9045 8.34686 0.0
44.2272 9.7338 0.0
44.4751 6.78811 0.0
-13.0016 39.7231 0.0
-15.8129 39.3493 0.0
-16.4313 36.8695 0.0
-17.303 34.4095 0.0
-15.0012 35.3243 0.0
-13.7414 35.8903 0.0
-4.1783 24.0331 0.0
-2.49761 21.7669 0.0
-0.876707 21.3903 0.0
0.545686 21.0499 0.0
-0.85931 23.3703 0.0
-2.34915 25.6068 0.0
32.1394 -36.0697 0.0
34.3883 -34.1581 0.0
37.4571 -30.967 0.0
38.0495 -29.8908 0.0
35.7878 -29.0025 0.0
31.2466 -35.465 0.0
-24.0854 -20.3732 0.0
-22.9502 -21.9588 0.0
-16.5625 -18.8214 0.0
-17.021 -18.0128 0.0
-17.8399 -16.7556 0.0
-21.8101 -17.2291 0.0
0.886611 24.3762 0.0
-0.358254 23.2827 0.0
1.04674 20.9622 0.0
2.20931 20.369 0.0
[...]
<CellData Scalars="cell variable 4" Vectors="cell vector">
<DataArray type="Float64" NumberOfComponents="3" Name="cell vector" format="ascii">
0 0 0
0 0 0
0 0 0
0 0 0
0 0 0
0 0 0
0 0 0
0 0 0
0 0 0
0 0 0
0 0 0
0 0 0
0 0 0
0 0 0
0 0 0
0 0 0
0 0 0
0 0 0
0 0 0
0 0 0
0 0 0
0 0 0
0 0 0
0 0 0
0 0 0
0 0 0
0 0 0
0 0 0
0 0 0
0 0 0
0 0 0
0 0 0
0 0 0
0 0 0
0 0 0
0 0 0
0 0 0
0 0 0
0 0 0
0 0 0
0 0 0
0 0 0
0 0 0
0 0 0
0 0 0
0 0 0
0 0 0
0 0 0
0 0 0
0 0 0
0 0 0
0 0 0
0 0 0
0 0 0
0 0 0
0 0 0
0 0 0
0 0 0
0 0 0
0 0 0
0 0 0
0 0 0
0 0 0
0 0 0
0 0 0
0 0 0
0 0 0
0 0 0
0 0 0
0 0 0
0 0 0
0 0 0
0 0 0
0 0 0
0 0 0
0 0 0
0 0 0
0 0 0
0 0 0
0 0 0
0 0 0
0 0 0
0 0 0
0 0 0
0 0 0
0 0 0
0 0 0
0 0 0
0 0 0
0 0 0
0 0 0
0 0 0
0 0 0
0 0 0
0 0 0
0 0 0
0 0 0
0 0 0
0 0 0
0 0 0
0 0 0
0 0 0
0 0 0
0 0 0
0 0 0
0 0 0
0 0 0
0 0 0
0 0 0
0 0 0
0 0 0
0 0 0
0 0 0
0 0 0
0 0 0
0 0 0
0 0 0
0 0 0
0 0 0
0 0 0
0 0 0
0 0 0
0 0 0
0 0 0
0 0 0
0 0 0
0 0 0
0 0 0
0 0 0
0 0 0
0 0 0
0 0 0
0 0 0
0 0 0
0 0 0
0 0 0
0 0 0
0 0 0
0 0 0
0 0 0
0 0 0
0 0 0
0 0 0
0 0 0
0 0 0
0 0 0
0 0 0
0 0 0
0 0 0
0 0 0
0 0 0
0 0 0
0 0 0
0 0 0
0 0 0
0 0 0
0 0 0
0 0 0
0 0 0
0 0 0
0 0 0
0 0 0
0 0 0
0 0 0
0 0 0
0 0 0
0 0 0
0 0 0
0 0 0
0 0 0
0 0 0
0 0 0
0 0 0
0 0 0
0 0 0
0 0 0
0 0 0
0 0 0
0 0 0
0 0 0
0 0 0
0 0 0
0 0 0
0 0 0
0 0 0
0 0 0
0 0 0
0 0 0
0 0 0
0 0 0
0 0 0
0 0 0
0 0 0
0 0 0
0 0 0
0 0 0
0 0 0
0 0 0
0 0 0
0 0 0
0 0 0
0 0 0
0 0 0
0 0 0
0 0 0
0 0 0
0 0 0
0 0 0
0 0 0
0 0 0
0 0 0
0 0 0
0 0 0
0 0 0
0 0 0
0 0 0
0 0 0
0 0 0
0 0 0
0 0 0
0 0 0
0 0 0
0 0 0
0 0 0
0 0 0
0 0 0
0 0 0
0 0 0
0 0 0
0 0 0
0 0 0
0 0 0
0 0 0
0 0 0
0 0 0
0 0 0
0 0 0
0 0 0
0 0 0
0 0 0
0 0 0
0 0 0
0 0 0
0 0 0
0 0 0
0 0 0
0 0 0
0 0 0
0 0 0
0 0 0
0 0 0
0 0 0
0 0 0
0 0 0
0 0 0
0 0 0
0 0 0
0 0 0
0 0 0
0 0 0
0 0 0
0 0 0
0 0 0
0 0 0
0 0 0
0 0 0
0 0 0
0 0 0
0 0 0
0 0 0
0 0 0
0 0 0
0 0 0
0 0 0
0 0 0
0 0 0
0 0 0
0 0 0
0 0 0
0 0 0
0 0 0
0 0 0
0 0 0
0 0 0
</DataArray>
<DataArray type="Float64" Name="cell vector length" format="ascii">
0 0 0 0 0 0 0 0 0 0 0 0 0 0 0 0 0 0 0 0 0 0 0 0 0 0 0 0 0 0 0 0 0 0 0 0 0 0 0 0 0 0 0 0 0 0 0 0 0 0 0 0 0 0 0 0 0 0 0 0 0 0 0 0 0 0 0 0 0 0 0 0 0 0 0 0 0 0 0 0 0 0 0 0 0 0 0 0 0 0 0 0 0 0 0 0 0 0 0 0 0 0 0 0 0 0 0 0 0 0 0 0 0 0 0 0 0 0 0 0 0 0 0 0 0 0 0 0 0 0 0 0 0 0 0 0 0 0 0 0 0 0 0 0 0 0 0 0 0 0 0 0 0 0 0 0 0 0 0 0 0 0 0 0 0 0 0 0 0 0 0 0 0 0 0 0 0 0 0 0 0 0 0 0 0 0 0 0 0 0 0 0 0 0 0 0 0 0 0 0 0 0 0 0 0 0 0 0 0 0 0 0 0 0 0 0 0 0 0 0 0 0 0 0 0 0 0 0 0 0 0 0 0 0 0 0 0 0 0 0 0 0 0 0 0 0 0 0 0 0 0 0 0 0 0 0 0 0 0 0 0 0 0 0 0 0 0 0 0 0 0 0 0 0 0 0 0 0 0 0 0 0 0 0 
</DataArray>
<DataArray type="Float64" Name="cell variable 4" format="ascii">
0.316217 0.000510187 7.22055e-10 1.1392e-10 0.249242 0.0032488 1.23542e-08 5.06408e-13 0.000319359 0.000137838 9.78894e-13 0.479217 5.48914e-07 1.04461 2.5153e-11 0.000586701 0.334198 4.77775e-11 2.14504e-13 0.161465 1.34433e-07 1.43573e-10 0.511974 1.79224e-10 2.32146e-14 1.06024e-10 0.393381 8.0853e-13 2.48184e-10 0.163146 9.42051e-13 0.626025 0.980966 1.75394e-12 0.437452 1.19294e-07 4.633e-11 0.184973 0.00760007 4.69927e-06 0.252014 1.1995e-07 1.0791e-13 1.08668e-13 0.000160982 5.75207e-12 8.58362e-10 0.434405 8.1913e-13 9.33834e-14 3.42967e-09 0.23011 0.442722 0.33356 3.05763e-10 1.53946e-11 1.06245 2.68958e-08 1.11547 0.912892 0.573608 3.35388e-12 6.26079e-12 3.62571e-14 1.55471e-05 0.542818 1.12037 6.17036e-10 1.36606e-10 1.97283e-08 4.18495e-05 2.5907e-09 2.35345e-13 5.84028e-11 0.0976075 7.68667e-14 0.000116047 0.0505895 5.96913e-06 1.61534e-05 5.26566e-05 2.73299e-11 5.60239e-07 9.71611e-13 1.81312e-09 8.20491e-13 1.55214e-11 1.10185 1.14226 0.371127 5.12565e-14 0.708918 3.8559e-13 1.82626e-12 4.42555e-05 0.00273317 0.118662 7.85135e-13 2.90644e-14 3.14565e-11 0.503886 5.73e-12 1.68594e-06 4.8591e-12 4.44145e-11 2.814e-10 2.22629e-12 5.76039e-06 3.47057e-13 9.51839e-14 3.83176e-13 1.11565e-11 1.3423e-11 0.673042 3.49399e-07 8.33062e-06 2.42345e-06 6.16323e-05 1.6923e-08 0.789941 6.21845e-13 1.12502e-11 3.37504e-10 4.46645e-09 2.16e-11 0.000425284 6.21089e-10 7.13306e-11 0.99432 5.20703e-14 2.06819e-12 3.18802e-14 5.41779e-08 0.000705084 0.66381 5.50953e-14 5.22026e-13 4.32436e-12 2.10901e-08 1.18023e-09 2.34778e-08 1.00681 7.58754e-07 1.95527e-13 1.73379e-12 2.90155e-14 2.88095e-08 6.97512e-07 3.13132e-09 8.68069e-05 0.0773391 5.37776e-11 0.00151096 0.919422 1.16697e-08 7.29789e-07 1.85341e-12 2.00391e-09 1.12956e-11 0.000237451 3.42138e-05 0.94865 0.848855 2.59037e-13 1.10621e-08 5.78851e-09 0.657465 8.723e-13 6.30556e-13 3.48747e-09 4.14778e-14 1.36504e-12 0.00403603 1.03617e-13 2.4788e-08 3.89469e-09 2.0118e-13 3.72001e-12 0.130161 0.0824302 9.53305e-13 0.179448 2.86502e-13 1.32488e-09 0.00103121 1.89305e-07 1.2938e-10 1.41816e-10 0.313432 0.136507 6.83616e-13 3.01178e-10 1.07467 8.75867e-11 1.36132e-10 2.06659e-11 6.13175e-07 6.80038e-10 1.5044e-05 3.52153e-13 0.790107 2.44056e-08 2.28015e-11 3.58878e-10 1.84661e-13 0.50937 0.45141 3.48316e-07 7.55742e-08 2.44034e-13 0.514292 0.000157331 4.61276e-06 0.495708 1.0952e-09 0.153908 7.50844e-12 4.76435e-12 1.38398e-06 1.23799e-05 7.27365e-13 3.28772e-13 3.34221e-13 0.00145277 3.05783e-14 0.8063 0.000331293 0.332003 2.73979e-13 0.763876 1.76443e-09 0.90618 1.25207e-10 0.187543 8.15157e-13 0.0646441 3.38072e-08 1.14453e-06 0.00370628 0.631062 7.9236e-08 1.73262e-10 0.343308 0.32239 0.000306373 0.399988 5.52696e-11 0.736473 2.24794e-07 5.6859e-12 5.98214e-11 0.393247 9.86599e-09 0.36504 1.60998e-08 1.04772e-07 1.86103e-08 3.09214e-07 0.0097703 1.5272e-11 1.65194e-09 1.09841e-08 0.184059 4.92599e-13 0.000209614 0.27464 0.0978407 0.0505895 2.73299e-11 4.61276e-06 0.000319359 6.80038e-10 5.06408e-13 0.542818 7.29789e-07 4.76435e-12 0.136507 3.49399e-07 0.184973 5.37776e-11 0.187543 3.42138e-05 1.79224e-10 1.73262e-10 
</DataArray>
<DataArray type="Float64" Name="cell variable 5" format="ascii">
0.0909148 0.999974 1 1 0.138655 0.998946 1 1 0.99999 0.999998 1 0.0417277 1 0.00908091 1 0.999966 0.082177 1 1 0.277231 1 1 0.0367488 1 1 1 0.0606986 1 1 0.273099 1 0.0248813 0.0102849 1 0.0496613 1 1 0.226167 0.994257 1 0.136034 1 1 1 0.999997 1 1 0.0503251 1 1 1 0.158855 0.0485429 0.0824658 1 1 0.00878122 1 0.00797274 0.0118572 0.0294962 1 1 1 1 0.0328244 0.00790366 1 1 1 1 1 1 1 0.512105 1 0.999999 0.796223 1 1 1 1 1 1 1 1 1 0.00816951 0.00760594 0.0676886 1 0.0195097 1 1 1 0.999254 0.415271 1 1 1 0.037893 1 1 1 1 1 1 1 1 1 1 1 1 0.021599 1 1 1 1 1 0.0157727 1 1 1 1 1 0.999982 1 1 0.0100133 1 1 1 1 0.99995 0.0221905 1 1 1 1 1 1 0.00976872 1 1 1 1 1 1 1 0.999999 0.62573 1 0.999772 0.0116913 1 1 1 1 1 0.999994 1 0.0109898 0.0136882 1 1 1 0.0226112 1 1 1 1 1 0.998374 1 1 1 1 1 0.371169 0.595425 1 0.236958 1 1 0.999894 1 1 1 0.0923878 0.349234 1 1 0.00858434 1 1 1 1 1 1 1 0.0157662 1 1 1 1 0.0371116 0.0467791 1 1 1 0.0364304 0.999998 1 0.0391044 1 0.296844 1 1 1 1 1 1 1 0.999789 1 0.0151488 0.999989 0.0831765 1 0.016849 1 0.0120314 1 0.221374 1 0.705275 1 1 0.998628 0.0244954 1 1 0.0782104 0.0877689 0.999991 0.0588268 1 0.0181031 1 1 1 0.0607373 1 0.0698059 1 1 1 1 0.990544 1 1 1 0.227907 1 0.999996 0.117059 0.510913 0.796223 1 1 0.99999 1 1 0.0328244 1 1 0.349234 1 0.226167 1 0.221374 1 1 1 
</DataArray>
<DataArray type="Float64" Name="cell variable 6" format="ascii">
0.0038835 1.00883 1.00917 1.00917 0.0566856 1.00681 1.00917 1.00917 1.00896 1.00908 1.00917 0.00051123 1.00917 6.33494e-06 1.00917 1.00878 0.00576492 1.00917 1.00917 0.298329 1.00917 1.00917 0.00035504 1.00917 1.00917 1.00917 0.00151522 1.00917 1.00917 0.294057 1.00917 0.000115922 9.11938e-06 1.00917 0.000885689 1.00917 1.00917 0.208208 1.00277 1.00917 0.0441278 1.00917 1.00917 1.00917 1.00907 1.00917 1.00917 0.000857904 1.00917 1.00917 1.00917 0.0671729 0.000858618 0.00403961 1.00917 1.00917 5.74138e-06 1.00917 4.32387e-06 1.38076e-05 0.000187165 1.00917 1.00917 1.00917 1.00916 0.000251962 4.21468e-06 1.00917 1.00917 1.00917 1.00915 1.00917 1.00917 1.00917 0.67289 1.00917 1.0091 0.900072 1.00917 1.00916 1.00914 1.00917 1.00917 1.00917 1.00917 1.00917 1.00917 4.64493e-06 3.76475e-06 0.0019189 1.00917 5.81379e-05 1.00917 1.00917 1.00914 1.00716 0.533485 1.00917 1.00917 1.00917 0.000380196 1.00917 1.00917 1.00917 1.00917 1.00917 1.00917 1.00917 1.00917 1.00917 1.00917 1.00917 1.00917 7.76673e-05 1.00917 1.00917 1.00917 1.00913 1.00917 3.156e-05 1.00917 1.00917 1.00917 1.00917 1.00917 1.00889 1.00917 1.00917 8.43313e-06 1.00917 1.00917 1.00917 1.00917 1.0087 8.3838e-05 1.00917 1.00917 1.00917 1.00917 1.00917 1.00917 7.8448e-06 1.00917 1.00917 1.00917 1.00917 1.00917 1.00917 1.00917 1.00912 0.780596 1.00917 1.00816 1.32528e-05 1.00917 1.00917 1.00917 1.00917 1.00917 1.00902 1.00915 1.10661e-05 2.09522e-05 1.00917 1.00917 1.00917 8.84138e-05 1.00917 1.00917 1.00917 1.00917 1.00917 1.00605 1.00917 1.00917 1.00917 1.00917 1.00917 0.477444 0.752638 1.00917 0.235078 1.00917 1.00917 1.00849 1.00917 1.00917 1.00917 0.00439847 0.432355 1.00917 1.00917 5.3719e-06 1.00917 1.00917 1.00917 1.00917 1.00917 1.00916 1.00917 3.15261e-05 1.00917 1.00917 1.00917 1.00917 0.000394946 0.000696942 1.00917 1.00917 1.00917 0.000349016 1.00907 1.00917 0.000410215 1.00917 0.3398 1.00917 1.00917 1.00917 1.00917 1.00917 1.00917 1.00917 1.00814 1.00917 2.80904e-05 1.00895 0.00364689 1.00917 3.81646e-05 1.00917 1.4406e-05 1.00917 0.185318 1.00917 0.841792 1.00917 1.00917 1.00642 0.000110922 1.00917 1.00917 0.00310284 0.00628005 1.00897 0.00127682 1.00917 4.69278e-05 1.00917 1.00917 1.00917 0.00202135 1.00917 0.0019794 1.00917 1.00917 1.00917 1.00917 1.00014 1.00917 1.00917 1.00917 0.235443 1.00917 1.00904 0.02163 0.674122 0.900072 1.00917 1.00917 1.00896 1.00917 1.00917 0.000251962 1.00917 1.00917 0.432355 1.00917 0.208208 1.00917 0.185318 1.00915 1.00917 1.00917 
</DataArray>
<DataArray type="Float64" Name="cell variable 7" format="ascii">
0.357275 0.805214 0.978092 0.988818 0.413855 0.731648 0.944982 0.994685 0.786592 0.818915 0.993483 0.24144 0.895885 0.091923 0.989084 0.789622 0.334908 0.989411 0.998841 0.543895 0.953353 0.985799 0.2268 0.985845 1.00092 0.987264 0.290041 0.998525 0.983128 0.531783 0.992442 0.185875 0.103782 0.990411 0.262734 0.924335 0.988661 0.488241 0.695937 0.865788 0.422896 0.91048 0.997008 1.00172 0.804465 0.987088 0.980133 0.264653 0.991034 0.999503 0.963699 0.46057 0.259721 0.337987 0.973562 0.99226 0.0886341 0.95837 0.0788486 0.116913 0.203114 0.995708 0.986261 1.00151 0.87201 0.214434 0.0779382 0.968141 0.97158 0.947968 0.828165 0.967203 0.99644 0.984507 0.58928 1.00361 0.821805 0.667622 0.876672 0.855098 0.808066 0.980165 0.910934 0.997889 0.951959 1.00169 0.991878 0.0813708 0.0738515 0.306453 1.00149 0.162493 0.994971 0.992078 0.85435 0.786302 0.633332 0.999409 1.00014 0.994724 0.230311 0.992247 0.922196 0.993424 0.98225 0.982487 0.998131 0.912087 1.00344 1.00249 0.999787 0.987627 0.99489 0.172124 0.887905 0.869271 0.886845 0.804393 0.966248 0.142859 0.996819 0.999395 0.974211 0.96428 0.987688 0.777768 0.969761 0.985824 0.10127 0.997763 0.994612 1.00237 0.955764 0.790771 0.174715 1.00165 0.994101 0.996076 0.945385 0.96829 0.922008 0.0989326 0.900971 0.996832 0.995481 1.00397 0.95287 0.921346 0.970096 0.812727 0.646851 0.979721 0.723507 0.115625 0.962378 0.91184 0.996643 0.966983 0.990645 0.815305 0.881455 0.109939 0.129973 0.998061 0.947397 0.969413 0.176526 0.996302 0.995339 0.970553 1.00209 0.994013 0.781706 0.997327 0.95286 0.960718 0.999721 0.995783 0.557964 0.652741 0.998509 0.481302 0.999409 0.978562 0.74517 0.938631 0.98041 0.9868 0.360012 0.58017 0.999374 0.975103 0.0863829 0.983673 0.986005 0.977907 0.926956 0.962912 0.867885 0.994962 0.142821 0.952017 0.98832 0.967409 1.00069 0.227704 0.255368 0.905229 0.926812 1.00105 0.225806 0.802201 0.89681 0.233945 0.965959 0.544906 0.989109 0.987181 0.900885 0.864126 0.997658 0.998671 1.00028 0.822606 1.00321 0.139181 0.823381 0.340125 0.99635 0.148901 0.962923 0.118245 0.986201 0.511928 0.991957 0.663687 0.960394 0.908704 0.736426 0.184332 0.937093 0.978337 0.329428 0.347352 0.774006 0.285858 0.988558 0.15552 0.921969 0.990758 0.988722 0.288948 0.963751 0.311423 0.969235 0.926865 0.933796 0.914119 0.724735 0.990516 0.973522 0.955946 0.426674 1.00277 0.803638 0.399197 0.570965 0.667622 0.980165 0.89681 0.786592 0.962912 0.994685 0.214434 0.91184 0.987181 0.58017 0.887905 0.488241 0.979721 0.511928 0.881455 0.985845 0.978337 
</DataArray>
<DataArray type="Float64" Name="cell variable 8" format="ascii">
0.962156 0.00548041 6.78582e-06 2.70073e-06 0.303101 0.0135919 2.78869e-05 1.80258e-07 0.0043084 0.00285712 2.50564e-07 0.972028 0.000183894 1 1.26911e-06 0.00584984 0.666978 1.7492e-06 1.17405e-07 0.168883 9.21472e-05 3.03024e-06 0.981646 3.38566e-06 3.86375e-08 2.60472e-06 0.924592 2.27925e-07 3.9821e-06 0.166567 2.45757e-07 0.999812 1 3.35209e-07 0.929319 8.62799e-05 1.72227e-06 0.186675 0.020738 0.000534122 0.366499 8.62524e-05 8.32445e-08 8.36067e-08 0.00307463 6.06674e-07 7.40148e-06 0.964322 2.29104e-07 7.74736e-08 1.47484e-05 0.336447 0.914192 0.824573 4.41202e-06 9.93431e-07 1 4.12579e-05 1 0.999999 0.998866 4.63979e-07 6.32838e-07 4.82914e-08 0.000973078 0.998786 1 6.26108e-06 2.94792e-06 3.52615e-05 0.00157806 1.2827e-05 1.22923e-07 1.93221e-06 0.0951343 7.03403e-08 0.00262361 0.0604524 0.000603628 0.000987578 0.00175981 1.3207e-06 0.000186424 2.49827e-07 1.06984e-05 2.29733e-07 9.97445e-07 1 1 0.947461 5.74178e-08 0.999602 1.573e-07 3.42153e-07 0.00163446 0.0126922 0.124254 2.24638e-07 4.32264e-08 1.4207e-06 0.990018 6.0608e-07 0.000324206 5.58243e-07 1.68429e-06 4.23971e-06 3.78185e-07 0.000597944 1.49459e-07 7.82584e-08 1.56942e-07 8.44987e-07 9.28078e-07 0.999753 0.000146438 0.000711791 0.000385569 0.00190183 3.27773e-05 0.999979 1.99826e-07 8.50337e-07 4.63595e-06 1.68325e-05 1.17576e-06 0.00495907 6.28357e-06 2.1359e-06 1 5.78335e-08 3.64279e-07 4.52898e-08 5.85262e-05 0.00641749 0.999909 5.95308e-08 1.82997e-07 5.26882e-07 3.64391e-05 8.65944e-06 3.82569e-05 1 0.000216461 1.12051e-07 3.33584e-07 4.32193e-08 4.26536e-05 0.000208494 1.41098e-05 0.0022629 0.0818281 1.85247e-06 0.00919472 1 2.7198e-05 0.000212815 3.44971e-07 1.12807e-05 8.5071e-07 0.00374714 0.00144698 1 0.999982 1.29e-07 2.64013e-05 1.91815e-05 0.999984 2.36648e-07 2.01167e-07 1.48919e-05 5.16566e-08 2.95914e-07 0.0154594 8.15767e-08 3.95647e-05 1.57073e-05 1.13718e-07 4.88655e-07 0.124702 0.0868451 2.4749e-07 0.170768 1.35699e-07 9.19273e-06 0.0076483 0.000109019 2.87369e-06 3.01219e-06 0.917706 0.1384 2.09611e-07 4.3801e-06 1 2.36586e-06 2.95078e-06 1.14797e-06 0.000195722 6.56627e-06 0.000956208 1.50325e-07 0.999916 3.92516e-05 1.20816e-06 4.77426e-06 1.08968e-07 0.939696 0.971081 0.000146805 6.87099e-05 1.25275e-07 0.97802 0.00303742 0.000533206 0.995422 8.33792e-06 0.155249 6.93393e-07 5.52145e-07 0.000292339 0.000866582 2.16148e-07 1.45346e-07 1.46587e-07 0.00932202 4.43619e-08 0.999998 0.00443775 0.883754 1.32627e-07 0.999984 1.05768e-05 1 2.83e-06 0.213109 2.28586e-07 0.0718918 4.62745e-05 0.000266324 0.014563 0.999805 7.05087e-05 3.32422e-06 0.888357 0.697714 0.00420238 0.971384 1.88106e-06 0.999645 0.000118378 6.0358e-07 1.95705e-06 0.787055 2.50146e-05 0.972414 3.19886e-05 8.09021e-05 3.41473e-05 0.000138597 0.023953 9.89153e-07 1.02551e-05 2.63534e-05 0.147616 1.7804e-07 0.00350806 0.488904 0.093308 0.0604524 1.3207e-06 0.000533206 0.0043084 6.56627e-06 1.80258e-07 0.998786 0.000212815 5.52145e-07 0.1384 0.000146438 0.186675 1.85247e-06 0.213109 0.00144698 3.38566e-06 3.32422e-06 
</DataArray>
<DataArray type="Float64" Name="cell variable 9" format="ascii">
0 0 0 0 0 0 0 0 0 0 0 0 0 0 0 0 0 0 0 0 0 0 0 0 0 0 0 0 0 0 0 0 0 0 0 0 0 0 0 0 0 0 0 0 0 0 0 0 0 0 0 0 0 0 0 0 0 0 0 0 0 0 0 0 0 0 0 0 0 0 0 0 0 0 0 0 0 0 0 0 0 0 0 0 0 0 0 0 0 0 0 0 0 0 0 0 0 0 0 0 0 0 0 0 0 0 0 0 0 0 0 0 0 0 0 0 0 0 0 0 0 0 0 0 0 0 0 0 0 0 0 0 0 0 0 0 0 0 0 0 0 0 0 0 0 0 0 0 0 0 0 0 0 0 0 0 0 0 0 0 0 0 0 0 0 0 0 0 0 0 0 0 0 0 0 0 0 0 0 0 0 0 0 0 0 0 0 0 0 0 0 0 0 0 0 0 0 0 0 0 0 0 0 0 0 0 0 0 0 0 0 0 0 0 0 0 0 0 0 0 0 0 0 0 0 0 0 0 0 0 0 0 0 0 0 0 0 0 0 0 0 0 0 0 0 0 0 0 0 0 0 0 0 0 0 0 0 0 0 0 0 0 0 0 0 0 0 0 0 0 0 0 0 0 0 0 0 0 0 0 0 0 0 0 
</DataArray>
<DataArray type="Float64" Name="cell variable 10" format="ascii">
0 0 0 0 0 0 0 0 0 0 0 0 0 0 0 0 0 0 0 0 0 0 0 0 0 0 0 0 0 0 0 0 0 0 0 0 0 0 0 0 0 0 0 0 0 0 0 0 0 0 0 0 0 0 0 0 0 0 0 0 0 0 0 0 0 0 0 0 0 0 0 0 0 0 0 0 0 0 0 0 0 0 0 0 0 0 0 0 0 0 0 0 0 0 0 0 0 0 0 0 0 0 0 0 0 0 0 0 0 0 0 0 0 0 0 0 0 0 0 0 0 0 0 0 0 0 0 0 0 0 0 0 0 0 0 0 0 0 0 0 0 0 0 0 0 0 0 0 0 0 0 0 0 0 0 0 0 0 0 0 0 0 0 0 0 0 0 0 0 0 0 0 0 0 0 0 0 0 0 0 0 0 0 0 0 0 0 0 0 0 0 0 0 0 0 0 0 0 0 0 0 0 0 0 0 0 0 0 0 0 0 0 0 0 0 0 0 0 0 0 0 0 0 0 0 0 0 0 0 0 0 0 0 0 0 0 0 0 0 0 0 0 0 0 0 0 0 0 0 0 0 0 0 0 0 0 0 0 0 0 0 0 0 0 0 0 0 0 0 0 0 0 0 0 0 0 0 0 0 0 0 0 0 0 
</DataArray>
<DataArray type="Float64" Name="cell variable 11" format="ascii">
0 0 0 0 0 0 0 0 0 0 0 0 0 0 0 0 0 0 0 0 0 0 0 0 0 0 0 0 0 0 0 0 0 0 0 0 0 0 0 0 0 0 0 0 0 0 0 0 0 0 0 0 0 0 0 0 0 0 0 0 0 0 0 0 0 0 0 0 0 0 0 0 0 0 0 0 0 0 0 0 0 0 0 0 0 0 0 0 0 0 0 0 0 0 0 0 0 0 0 0 0 0 0 0 0 0 0 0 0 0 0 0 0 0 0 0 0 0 0 0 0 0 0 0 0 0 0 0 0 0 0 0 0 0 0 0 0 0 0 0 0 0 0 0 0 0 0 0 0 0 0 0 0 0 0 0 0 0 0 0 0 0 0 0 0 0 0 0 0 0 0 0 0 0 0 0 0 0 0 0 0 0 0 0 0 0 0 0 0 0 0 0 0 0 0 0 0 0 0 0 0 0 0 0 0 0 0 0 0 0 0 0 0 0 0 0 0 0 0 0 0 0 0 0 0 0 0 0 0 0 0 0 0 0 0 0 0 0 0 0 0 0 0 0 0 0 0 0 0 0 0 0 0 0 0 0 0 0 0 0 0 0 0 0 0 0 0 0 0 0 0 0 0 0 0 0 0 0 0 0 0 0 0 0 
</DataArray>
<DataArray type="Float64" Name="cell variable 12" format="ascii">
0 0 0 0 0 0 0 0 0 0 0 0 0 0 0 0 0 0 0 0 0 0 0 0 0 0 0 0 0 0 0 0 0 0 0 0 0 0 0 0 0 0 0 0 0 0 0 0 0 0 0 0 0 0 0 0 0 0 0 0 0 0 0 0 0 0 0 0 0 0 0 0 0 0 0 0 0 0 0 0 0 0 0 0 0 0 0 0 0 0 0 0 0 0 0 0 0 0 0 0 0 0 0 0 0 0 0 0 0 0 0 0 0 0 0 0 0 0 0 0 0 0 0 0 0 0 0 0 0 0 0 0 0 0 0 0 0 0 0 0 0 0 0 0 0 0 0 0 0 0 0 0 0 0 0 0 0 0 0 0 0 0 0 0 0 0 0 0 0 0 0 0 0 0 0 0 0 0 0 0 0 0 0 0 0 0 0 0 0 0 0 0 0 0 0 0 0 0 0 0 0 0 0 0 0 0 0 0 0 0 0 0 0 0 0 0 0 0 0 0 0 0 0 0 0 0 0 0 0 0 0 0 0 0 0 0 0 0 0 0 0 0 0 0 0 0 0 0 0 0 0 0 0 0 0 0 0 0 0 0 0 0 0 0 0 0 0 0 0 0 0 0 0 0 0 0 0 0 0 0 0 0 0 0 
</DataArray>
<DataArray type="Float64" Name="cell variable 13" format="ascii">
0 0 0 0 0 0 0 0 0 0 0 0 0 0 0 0 0 0 0 0 0 0 0 0 0 0 0 0 0 0 0 0 0 0 0 0 0 0 0 0 0 0 0 0 0 0 0 0 0 0 0 0 0 0 0 0 0 0 0 0 0 0 0 0 0 0 0 0 0 0 0 0 0 0 0 0 0 0 0 0 0 0 0 0 0 0 0 0 0 0 0 0 0 0 0 0 0 0 0 0 0 0 0 0 0 0 0 0 0 0 0 0 0 0 0 0 0 0 0 0 0 0 0 0 0 0 0 0 0 0 0 0 0 0 0 0 0 0 0 0 0 0 0 0 0 0 0 0 0 0 0 0 0 0 0 0 0 0 0 0 0 0 0 0 0 0 0 0 0 0 0 0 0 0 0 0 0 0 0 0 0 0 0 0 0 0 0 0 0 0 0 0 0 0 0 0 0 0 0 0 0 0 0 0 0 0 0 0 0 0 0 0 0 0 0 0 0 0 0 0 0 0 0 0 0 0 0 0 0 0 0 0 0 0 0 0 0 0 0 0 0 0 0 0 0 0 0 0 0 0 0 0 0 0 0 0 0 0 0 0 0 0 0 0 0 0 0 0 0 0 0 0 0 0 0 0 0 0 0 0 0 0 0 0 
</DataArray>
<DataArray type="Float64" Name="cell variable 14" format="ascii">
0 0 0 0 0 0 0 0 0 0 0 0 0 0 0 0 0 0 0 0 0 0 0 0 0 0 0 0 0 0 0 0 0 0 0 0 0 0 0 0 0 0 0 0 0 0 0 0 0 0 0 0 0 0 0 0 0 0 0 0 0 0 0 0 0 0 0 0 0 0 0 0 0 0 0 0 0 0 0 0 0 0 0 0 0 0 0 0 0 0 0 0 0 0 0 0 0 0 0 0 0 0 0 0 0 0 0 0 0 0 0 0 0 0 0 0 0 0 0 0 0 0 0 0 0 0 0 0 0 0 0 0 0 0 0 0 0 0 0 0 0 0 0 0 0 0 0 0 0 0 0 0 0 0 0 0 0 0 0 0 0 0 0 0 0 0 0 0 0 0 0 0 0 0 0 0 0 0 0 0 0 0 0 0 0 0 0 0 0 0 0 0 0 0 0 0 0 0 0 0 0 0 0 0 0 0 0 0 0 0 0 0 0 0 0 0 0 0 0 0 0 0 0 0 0 0 0 0 0 0 0 0 0 0 0 0 0 0 0 0 0 0 0 0 0 0 0 0 0 0 0 0 0 0 0 0 0 0 0 0 0 0 0 0 0 0 0 0 0 0 0 0 0 0 0 0 0 0 0 0 0 0 0 0 
</DataArray>
</CellData>
</Piece>
</UnstructuredGrid>
</VTKFile>
