<VTKFile type="UnstructuredGrid" version="0.1">
<UnstructuredGrid>
<Piece  NumberOfPoints="    2420" NumberOfCells="     405">
<Points>
<DataArray type="Float64" NumberOfComponents="3" format="ascii">
24.4731 -21.8126 0.0
24.7706 -18.2287 0.0
18.7928 -20.6059 0.0
20.6039 -24.8555 0.0
22.1736 -24.921 0.0
29.2086 -31.3262 0.0
28.9885 -30.2243 0.0
24.3152 -29.9907 0.0
23.7715 -30.4786 0.0
20.2603 -35.486 0.0
23.2484 -36.5428 0.0
-18.0324 41.7354 0.0
-21.6809 41.3548 0.0
-22.7258 40.3965 0.0
-20.2128 36.6588 0.0
-18.1529 36.8199 0.0
-57.8323 6.73309 0.0
-57.6954 5.34318 0.0
-51.0919 5.77699 0.0
-51.1016 5.95971 0.0
-52.167 7.28851 0.0
-55.497 9.52016 0.0
31.9496 -4.35488 0.0
32.8181 -6.16062 0.0
35.6787 -5.14713 0.0
37.5657 -4.28192 0.0
38.4446 0.178838 0.0
38.4227 1.4046 0.0
37.5288 2.316 0.0
36.9271 2.21579 0.0
38.932 0.0208694 0.0
38.0531 -4.43989 0.0
41.5025 -7.1966 0.0
43.622 -4.40383 0.0
13.5988 50.2134 0.0
16.6042 52.3041 0.0
12.049 54.5188 0.0
8.71809 52.1086 0.0
9.20158 51.5442 0.0
8.76712 -12.9717 0.0
11.8975 -8.03985 0.0
10.9557 -6.65606 0.0
5.56095 -8.55149 0.0
-20.4304 -41.7245 0.0
-18.0807 -45.244 0.0
-14.7458 -41.508 0.0
-17.7564 -38.6882 0.0
-36.3051 30.0838 0.0
-36.2719 29.7029 0.0
-31.5836 26.8499 0.0
-31.0435 27.2052 0.0
-27.9811 30.3426 0.0
-37.8142 -6.13354 0.0
-37.3785 -7.94724 0.0
-34.4499 -8.45067 0.0
-30.182 -8.56808 0.0
-29.4845 -7.73672 0.0
-29.9305 -5.27663 0.0
-30.4482 -4.42349 0.0
-24.0549 -9.65504 0.0
-28.9035 -8.15283 0.0
-29.601 -8.98419 0.0
-29.6075 -12.7428 0.0
-28.7834 -13.241 0.0
-27.1533 -14.2128 0.0
-27.273 39.9254 0.0
-27.9121 42.8852 0.0
-34.1342 40.0585 0.0
-32.8519 38.0197 0.0
-28.2774 38.9681 0.0
0.0479789 -7.05731 0.0
-1.92954 -4.42537 0.0
-5.25595 -4.28389 0.0
-6.62657 -4.55648 0.0
-7.64412 -8.45655 0.0
-4.66603 -9.73083 0.0
45.5995 6.21943 0.0
45.2118 3.24293 0.0
50.4235 3.81002 0.0
51.1029 7.53421 0.0
46.684 7.09178 0.0
-43.0682 -16.7806 0.0
-41.7042 -19.0363 0.0
-40.5997 -19.0267 0.0
-36.6977 -15.3434 0.0
-37.6141 -12.7976 0.0
-11.2405 28.7047 0.0
-10.8858 30.713 0.0
-13.0979 32.3737 0.0
-14.8055 32.4242 0.0
-16.1805 31.2835 0.0
-17.75 28.465 0.0
-46.4389 24.5917 0.0
-48.7625 21.6232 0.0
-46.2267 16.4173 0.0
-44.6314 22.9857 0.0
-46.0945 24.4408 0.0
21.0519 -8.53344 0.0
24.6122 -7.80005 0.0
26.1828 -4.63225 0.0
24.0003 -2.43995 0.0
23.635 -2.30229 0.0
20.5601 26.5766 0.0
23.1057 28.2821 0.0
21.8828 30.7712 0.0
20.0226 31.2095 0.0
15.8001 31.4975 0.0
-51.7137 7.80843 0.0
-50.6483 6.47963 0.0
-49.201 8.56577 0.0
-47.992 11.3423 0.0
-50.8347 18.6206 0.0
-51.5617 18.274 0.0
-12.2469 9.29992 0.0
-11.0504 8.99414 0.0
-7.8053 14.2967 0.0
-8.03358 14.5872 0.0
-11.1977 14.8788 0.0
-13.3863 11.2837 0.0
-13.4582 10.2204 0.0
16.6941 19.0552 0.0
18.2754 17.0301 0.0
24.2751 18.0539 0.0
22.025 21.7243 0.0
19.4097 23.1527 0.0
-47.6963 26.0891 0.0
-51.5621 28.8928 0.0
-54.5627 24.969 0.0
-54.0492 23.1953 0.0
-47.6306 -28.9435 0.0
-47.6682 -33.9762 0.0
-45.7141 -35.1554 0.0
-44.7944 -34.4895 0.0
-43.2803 -32.1096 0.0
-26.1837 12.0817 0.0
-27.986 11.675 0.0
-28.5096 9.59225 0.0
-27.2692 7.89078 0.0
-21.9893 7.44894 0.0
-23.54 18.392 0.0
-24.5484 19.6322 0.0
-29.1355 16.141 0.0
-29.007 15.1325 0.0
-28.0439 12.3095 0.0
-26.2416 12.7162 0.0
-26.0099 12.7832 0.0
50.9197 2.91075 0.0
49.8341 -1.18255 0.0
50.3572 -1.78882 0.0
53.9361 -1.46416 0.0
54.8147 0.298003 0.0
55.4904 3.02486 0.0
16.9451 52.5946 0.0
17.3195 52.755 0.0
18.6729 56.3259 0.0
16.7936 57.5124 0.0
16.2935 57.6374 0.0
12.3899 54.8093 0.0
15.9302 -28.194 0.0
16.0533 -29.8842 0.0
16.2587 -30.5053 0.0
23.2926 -30.0206 0.0
23.8363 -29.5328 0.0
22.254 -25.954 0.0
21.9617 -25.5921 0.0
20.3919 -25.5267 0.0
-30.6379 -1.10291 0.0
-27.9975 0.164791 0.0
-31.4734 6.16595 0.0
-33.2957 4.78461 0.0
-32.8483 0.200434 0.0
8.27037 23.1637 0.0
8.13952 23.3202 0.0
3.07607 25.3629 0.0
2.15663 24.8344 0.0
-2.2621 21.7262 0.0
-1.19067 20.4803 0.0
8.601 21.469 0.0
6.8361 15.7078 0.0
4.66165 16.2666 0.0
-1.09883 12.8863 0.0
1.07462 11.1491 0.0
1.93386 10.7914 0.0
4.92821 10.5904 0.0
6.51989 13.0128 0.0
7.15725 14.691 0.0
-41.5903 5.65675 0.0
-42.1367 6.74095 0.0
-48.7473 7.92625 0.0
-50.1946 5.84011 0.0
-50.1848 5.65739 0.0
-50.1646 5.49302 0.0
-45.3555 3.80084 0.0
-43.192 3.57947 0.0
-42.9362 3.8827 0.0
-41.6786 5.3801 0.0
-17.8271 -26.8491 0.0
-16.6799 -25.7079 0.0
-18.2299 -19.0732 0.0
-18.6246 -18.7713 0.0
-19.243 -18.7269 0.0
-21.9452 -22.2362 0.0
-19.8932 46.3841 0.0
-16.1143 47.7699 0.0
-15.0857 50.2403 0.0
-22.9325 51.3625 0.0
-24.5801 48.1124 0.0
-6.81822 25.3818 0.0
-6.00217 22.7328 0.0
-4.42837 22.0568 0.0
-2.92197 21.8547 0.0
1.49676 24.9628 0.0
-2.71632 -40.0673 0.0
-0.583493 -38.7836 0.0
1.22329 -37.676 0.0
-3.73822 -33.0483 0.0
-4.32546 -33.2368 0.0
-3.97256 -39.77 0.0
-3.7854 -39.9054 0.0
-33.6513 -17.1817 0.0
-36.373 -15.694 0.0
-40.275 -19.3773 0.0
-35.6372 -24.6087 0.0
-34.8914 -22.8416 0.0
47.7916 15.0147 0.0
47.3471 15.1687 0.0
43.3972 9.26704 0.0
45.3645 6.73149 0.0
46.4491 7.60384 0.0
24.9403 18.1388 0.0
25.9917 17.3399 0.0
30.9245 19.8084 0.0
28.9038 23.3848 0.0
22.6902 21.8092 0.0
-17.438 -47.9613 0.0
-15.999 -49.4557 0.0
-14.9832 -50.2125 0.0
-7.59748 -50.2683 0.0
-7.45348 -49.8471 0.0
-7.7217 -49.3351 0.0
-8.70518 -48.708 0.0
-11.686 -46.6693 0.0
-17.0215 -46.9846 0.0
-20.7771 -42.0502 0.0
-22.6641 -41.5483 0.0
-24.3962 -45.3241 0.0
-23.4525 -46.2032 0.0
-20.7533 -48.1972 0.0
-18.2837 -47.6101 0.0
-17.8672 -46.6334 0.0
-18.4274 -45.5697 0.0
3.37771 49.5871 0.0
6.44908 52.4658 0.0
5.79918 53.2262 0.0
1.33304 53.4653 0.0
-0.62922 52.6874 0.0
-2.49516 51.1293 0.0
16.484 -36.883 0.0
12.0196 -39.5015 0.0
11.4581 -39.9806 0.0
13.2709 -44.5084 0.0
14.5676 -44.438 0.0
-13.4772 -41.6267 0.0
-11.2003 -43.5917 0.0
-8.03701 -40.2519 0.0
-7.7079 -39.854 0.0
-8.74444 -38.8526 0.0
-11.589 -37.2039 0.0
-61.8845 9.73539 0.0
-61.787 9.01874 0.0
-58.1871 7.02483 0.0
-55.8518 9.8119 0.0
-56.0131 13.1181 0.0
18.6368 24.0173 0.0
18.5835 25.0272 0.0
13.432 28.0533 0.0
12.6992 27.7942 0.0
9.20453 23.5888 0.0
9.33538 23.4323 0.0
-5.32697 59.5668 0.0
-5.52952 59.4797 0.0
-0.995673 53.2095 0.0
0.966583 53.9873 0.0
1.22075 58.3695 0.0
0.435626 59.0384 0.0
-2.86654 59.6489 0.0
50.9416 16.0506 0.0
51.7252 14.1279 0.0
55.982 15.0649 0.0
56.1261 17.2738 0.0
54.9423 18.8208 0.0
52.0665 18.9077 0.0
51.8827 18.6554 0.0
-39.5014 39.4343 0.0
-35.7355 40.5093 0.0
-35.4445 48.6224 0.0
-39.8031 40.7942 0.0
-38.4897 -4.68025 0.0
-38.2476 -5.27616 0.0
-37.922 -5.77203 0.0
-30.5561 -4.06197 0.0
-30.9593 -1.63335 0.0
-33.1697 -0.330005 0.0
-35.7303 -1.39501 0.0
-37.3133 -3.28061 0.0
-0.947622 -31.0094 0.0
-0.965469 -31.1457 0.0
4.5695 -33.6872 0.0
5.632 -32.6629 0.0
8.80295 -28.1053 0.0
7.96256 -27.1466 0.0
-0.255259 -30.0507 0.0
-10.544 28.8186 0.0
-10.5119 27.9713 0.0
-3.0562 32.6434 0.0
-2.7709 33.1689 0.0
-5.36483 33.9488 0.0
-10.1893 30.8269 0.0
-15.5961 14.0737 0.0
-17.2953 17.1539 0.0
-18.2098 16.9726 0.0
-19.5324 15.7018 0.0
-20.609 12.7602 0.0
-19.8408 10.9907 0.0
-52.7524 -27.2471 0.0
-52.9774 -27.7593 0.0
-51.1272 -31.1768 0.0
-49.0595 -33.4853 0.0
-48.0669 -33.7458 0.0
-48.0292 -28.7132 0.0
-48.1249 -28.1371 0.0
13.2113 7.72266 0.0
15.1444 10.1548 0.0
12.8956 12.4708 0.0
7.93397 14.4929 0.0
7.29661 12.8147 0.0
-5.87148 59.2235 0.0
-6.2412 59.0961 0.0
-7.22274 54.2152 0.0
-7.53269 52.633 0.0
-5.55584 51.4799 0.0
-3.60861 51.165 0.0
-3.20358 51.3951 0.0
-1.33763 52.9533 0.0
5.42468 -8.09398 0.0
10.8194 -6.19855 0.0
10.9729 -3.26498 0.0
10.483 -2.83293 0.0
5.69755 -1.25831 0.0
4.88644 -4.92337 0.0
4.40501 -8.13478 0.0
14.7614 0.683341 0.0
13.209 -1.96474 0.0
18.4572 -5.32011 0.0
20.7264 -2.2137 0.0
19.5772 -0.90832 0.0
18.3042 0.373894 0.0
18.0405 -9.11969 0.0
20.722 -8.54191 0.0
23.3052 -2.31075 0.0
23.0251 -2.16716 0.0
21.0633 -2.59709 0.0
18.7941 -5.7035 0.0
17.6984 -8.69031 0.0
19.8892 31.7305 0.0
21.7494 31.2921 0.0
21.9046 33.0656 0.0
21.9628 33.9009 0.0
21.6592 34.8048 0.0
19.7996 36.3233 0.0
14.7056 37.3694 0.0
13.7918 36.6309 0.0
12.0555 -38.97 0.0
16.5199 -36.3514 0.0
17.3761 -35.6756 0.0
15.5263 -32.3607 0.0
12.3388 -34.0303 0.0
-7.90918 7.72099 0.0
-7.05935 5.33924 0.0
0.30275 10.7713 0.0
-1.87069 12.5085 0.0
-2.82847 12.8041 0.0
-4.37756 12.1855 0.0
34.4747 37.3509 0.0
31.8091 33.7861 0.0
37.2725 32.3749 0.0
36.8002 35.9613 0.0
35.5308 36.8162 0.0
-18.1589 -2.16222 0.0
-17.9444 -1.69797 0.0
-18.5744 -0.374482 0.0
-20.9496 2.62493 0.0
-25.3802 1.07788 0.0
-25.8875 0.168103 0.0
-24.5593 -1.30561 0.0
-3.12278 2.45362 0.0
-4.3102 2.45878 0.0
-5.13785 -3.69939 0.0
-1.81144 -3.84087 0.0
-0.978631 -2.01453 0.0
-0.446957 -0.496635 0.0
-2.21411 1.90022 0.0
-28.3536 -54.4743 0.0
-23.8751 -55.9478 0.0
-23.4451 -51.7552 0.0
-27.8887 -51.1276 0.0
36.0149 44.1519 0.0
34.2583 46.7537 0.0
33.5448 46.7004 0.0
33.2071 46.0367 0.0
33.1161 39.532 0.0
34.4273 38.1066 0.0
35.4833 37.5719 0.0
42.8456 -29.1035 0.0
42.3796 -29.7073 0.0
41.8751 -36.7561 0.0
46.6311 -29.3217 0.0
46.4765 -28.0785 0.0
45.9329 -28.1803 0.0
27.5591 40.5354 0.0
26.6225 41.8275 0.0
20.802 38.0892 0.0
20.448 37.3135 0.0
20.3503 36.6812 0.0
22.2099 35.1627 0.0
26.2447 36.7585 0.0
56.482 4.11314 0.0
55.9977 3.03599 0.0
55.322 0.309135 0.0
58.51 -3.45027 0.0
59.7807 1.75274 0.0
59.6093 2.95542 0.0
24.4512 -2.03098 0.0
26.6338 -4.22329 0.0
30.3698 -3.59913 0.0
30.8275 2.18848 0.0
7.37714 -42.1468 0.0
4.94416 -48.275 0.0
5.28948 -48.548 0.0
10.311 -47.1787 0.0
10.529 -46.9215 0.0
-6.41894 38.1997 0.0
-4.92399 34.4961 0.0
-2.33006 33.7162 0.0
0.287572 34.1164 0.0
0.480012 37.6626 0.0
0.388202 38.0719 0.0
-2.93643 40.4242 0.0
24.9604 45.4626 0.0
26.8129 43.3846 0.0
32.602 46.456 0.0
32.9397 47.1196 0.0
27.8489 49.3175 0.0
25.0701 46.6953 0.0
-33.0941 -33.2637 0.0
-26.8195 -30.9543 0.0
-26.853 -29.4495 0.0
-28.5881 -27.197 0.0
-31.5652 -27.4774 0.0
1.33821 38.0476 0.0
1.43002 37.6383 0.0
9.47185 33.7735 0.0
10.2266 33.7822 0.0
11.5176 36.3807 0.0
10.7059 36.8209 0.0
3.38544 39.139 0.0
-0.177497 45.3254 0.0
2.49749 48.4023 0.0
3.10932 49.2338 0.0
-2.76355 50.7761 0.0
-3.16858 50.546 0.0
[...]
<CellData Scalars="cell variable 4" Vectors="cell vector">
<DataArray type="Float64" NumberOfComponents="3" Name="cell vector" format="ascii">
0 0 0
0 0 0
0 0 0
0 0 0
0 0 0
0 0 0
0 0 0
0 0 0
0 0 0
0 0 0
0 0 0
0 0 0
0 0 0
0 0 0
0 0 0
0 0 0
0 0 0
0 0 0
0 0 0
0 0 0
0 0 0
0 0 0
0 0 0
0 0 0
0 0 0
0 0 0
0 0 0
0 0 0
0 0 0
0 0 0
0 0 0
0 0 0
0 0 0
0 0 0
0 0 0
0 0 0
0 0 0
0 0 0
0 0 0
0 0 0
0 0 0
0 0 0
0 0 0
0 0 0
0 0 0
0 0 0
0 0 0
0 0 0
0 0 0
0 0 0
0 0 0
0 0 0
0 0 0
0 0 0
0 0 0
0 0 0
0 0 0
0 0 0
0 0 0
0 0 0
0 0 0
0 0 0
0 0 0
0 0 0
0 0 0
0 0 0
0 0 0
0 0 0
0 0 0
0 0 0
0 0 0
0 0 0
0 0 0
0 0 0
0 0 0
0 0 0
0 0 0
0 0 0
0 0 0
0 0 0
0 0 0
0 0 0
0 0 0
0 0 0
0 0 0
0 0 0
0 0 0
0 0 0
0 0 0
0 0 0
0 0 0
0 0 0
0 0 0
0 0 0
0 0 0
0 0 0
0 0 0
0 0 0
0 0 0
0 0 0
0 0 0
0 0 0
0 0 0
0 0 0
0 0 0
0 0 0
0 0 0
0 0 0
0 0 0
0 0 0
0 0 0
0 0 0
0 0 0
0 0 0
0 0 0
0 0 0
0 0 0
0 0 0
0 0 0
0 0 0
0 0 0
0 0 0
0 0 0
0 0 0
0 0 0
0 0 0
0 0 0
0 0 0
0 0 0
0 0 0
0 0 0
0 0 0
0 0 0
0 0 0
0 0 0
0 0 0
0 0 0
0 0 0
0 0 0
0 0 0
0 0 0
0 0 0
0 0 0
0 0 0
0 0 0
0 0 0
0 0 0
0 0 0
0 0 0
0 0 0
0 0 0
0 0 0
0 0 0
0 0 0
0 0 0
0 0 0
0 0 0
0 0 0
0 0 0
0 0 0
0 0 0
0 0 0
0 0 0
0 0 0
0 0 0
0 0 0
0 0 0
0 0 0
0 0 0
0 0 0
0 0 0
0 0 0
0 0 0
0 0 0
0 0 0
0 0 0
0 0 0
0 0 0
0 0 0
0 0 0
0 0 0
0 0 0
0 0 0
0 0 0
0 0 0
0 0 0
0 0 0
0 0 0
0 0 0
0 0 0
0 0 0
0 0 0
0 0 0
0 0 0
0 0 0
0 0 0
0 0 0
0 0 0
0 0 0
0 0 0
0 0 0
0 0 0
0 0 0
0 0 0
0 0 0
0 0 0
0 0 0
0 0 0
0 0 0
0 0 0
0 0 0
0 0 0
0 0 0
0 0 0
0 0 0
0 0 0
0 0 0
0 0 0
0 0 0
0 0 0
0 0 0
0 0 0
0 0 0
0 0 0
0 0 0
0 0 0
0 0 0
0 0 0
0 0 0
0 0 0
0 0 0
0 0 0
0 0 0
0 0 0
0 0 0
0 0 0
0 0 0
0 0 0
0 0 0
0 0 0
0 0 0
0 0 0
0 0 0
0 0 0
0 0 0
0 0 0
0 0 0
0 0 0
0 0 0
0 0 0
0 0 0
0 0 0
0 0 0
0 0 0
0 0 0
0 0 0
0 0 0
0 0 0
0 0 0
0 0 0
0 0 0
0 0 0
0 0 0
0 0 0
0 0 0
0 0 0
0 0 0
0 0 0
0 0 0
0 0 0
0 0 0
0 0 0
0 0 0
0 0 0
0 0 0
0 0 0
0 0 0
0 0 0
0 0 0
0 0 0
0 0 0
0 0 0
0 0 0
0 0 0
0 0 0
0 0 0
0 0 0
0 0 0
0 0 0
0 0 0
0 0 0
0 0 0
0 0 0
0 0 0
0 0 0
0 0 0
0 0 0
0 0 0
0 0 0
0 0 0
0 0 0
0 0 0
0 0 0
0 0 0
0 0 0
0 0 0
0 0 0
0 0 0
0 0 0
0 0 0
0 0 0
0 0 0
0 0 0
0 0 0
0 0 0
0 0 0
0 0 0
0 0 0
0 0 0
0 0 0
0 0 0
0 0 0
0 0 0
0 0 0
0 0 0
0 0 0
0 0 0
0 0 0
0 0 0
0 0 0
0 0 0
0 0 0
0 0 0
0 0 0
0 0 0
0 0 0
0 0 0
0 0 0
0 0 0
0 0 0
0 0 0
0 0 0
0 0 0
0 0 0
0 0 0
0 0 0
0 0 0
0 0 0
0 0 0
0 0 0
0 0 0
0 0 0
0 0 0
0 0 0
0 0 0
0 0 0
0 0 0
0 0 0
0 0 0
0 0 0
0 0 0
0 0 0
0 0 0
0 0 0
0 0 0
0 0 0
0 0 0
0 0 0
0 0 0
0 0 0
0 0 0
0 0 0
0 0 0
0 0 0
0 0 0
0 0 0
0 0 0
0 0 0
0 0 0
0 0 0
0 0 0
0 0 0
0 0 0
0 0 0
0 0 0
0 0 0
0 0 0
0 0 0
0 0 0
0 0 0
0 0 0
0 0 0
0 0 0
0 0 0
0 0 0
0 0 0
0 0 0
0 0 0
0 0 0
0 0 0
0 0 0
0 0 0
0 0 0
0 0 0
0 0 0
</DataArray>
<DataArray type="Float64" Name="cell vector length" format="ascii">
0 0 0 0 0 0 0 0 0 0 0 0 0 0 0 0 0 0 0 0 0 0 0 0 0 0 0 0 0 0 0 0 0 0 0 0 0 0 0 0 0 0 0 0 0 0 0 0 0 0 0 0 0 0 0 0 0 0 0 0 0 0 0 0 0 0 0 0 0 0 0 0 0 0 0 0 0 0 0 0 0 0 0 0 0 0 0 0 0 0 0 0 0 0 0 0 0 0 0 0 0 0 0 0 0 0 0 0 0 0 0 0 0 0 0 0 0 0 0 0 0 0 0 0 0 0 0 0 0 0 0 0 0 0 0 0 0 0 0 0 0 0 0 0 0 0 0 0 0 0 0 0 0 0 0 0 0 0 0 0 0 0 0 0 0 0 0 0 0 0 0 0 0 0 0 0 0 0 0 0 0 0 0 0 0 0 0 0 0 0 0 0 0 0 0 0 0 0 0 0 0 0 0 0 0 0 0 0 0 0 0 0 0 0 0 0 0 0 0 0 0 0 0 0 0 0 0 0 0 0 0 0 0 0 0 0 0 0 0 0 0 0 0 0 0 0 0 0 0 0 0 0 0 0 0 0 0 0 0 0 0 0 0 0 0 0 0 0 0 0 0 0 0 0 0 0 0 0 0 0 0 0 0 0 0 0 0 0 0 0 0 0 0 0 0 0 0 0 0 0 0 0 0 0 0 0 0 0 0 0 0 0 0 0 0 0 0 0 0 0 0 0 0 0 0 0 0 0 0 0 0 0 0 0 0 0 0 0 0 0 0 0 0 0 0 0 0 0 0 0 0 0 0 0 0 0 0 0 0 0 0 0 0 0 0 0 0 0 0 0 0 0 0 0 0 0 0 0 0 0 0 0 0 0 0 0 0 0 0 0 0 0 0 0 0 0 0 0 0 0 0 0 0 0 0 
</DataArray>
<DataArray type="Float64" Name="cell variable 4" format="ascii">
0.316217 0.000510187 6.16323e-05 3.38072e-08 0.249242 0.0032488 1.23542e-08 0.94865 0.000319359 0.000137838 0.23011 0.479217 5.48914e-07 1.04461 1.14453e-06 0.000586701 0.334198 4.61276e-06 0.573608 0.161465 1.34433e-07 0.99432 0.511974 1.16697e-08 2.10901e-08 0.495708 0.393381 1.14453e-06 1.23542e-08 0.163146 0.332003 0.626025 0.980966 3.42138e-05 0.437452 1.19294e-07 0.36504 0.184973 0.00760007 4.69927e-06 0.252014 1.1995e-07 2.42345e-06 5.96913e-06 0.000160982 0.000319359 8.58362e-10 0.434405 2.68958e-08 1.86103e-08 3.42967e-09 0.23011 0.442722 0.33356 0.673042 2.10901e-08 1.06245 2.68958e-08 1.11547 0.912892 0.573608 0.161465 0.187543 1.07467 1.55471e-05 0.542818 1.12037 6.17036e-10 1.10621e-08 1.97283e-08 4.18495e-05 2.5907e-09 0.45141 0.000237451 0.0976075 7.55742e-08 0.000116047 0.0505895 5.96913e-06 1.61534e-05 5.26566e-05 0.00103121 5.60239e-07 0.0032488 1.81312e-09 7.29789e-07 0.0824302 1.10185 1.14226 0.371127 0.184973 0.708918 5.26566e-05 0.000160982 4.42555e-05 0.00273317 0.118662 1.1995e-07 1.38398e-06 6.13175e-07 0.503886 7.9236e-08 1.68594e-06 0.313432 0.631062 0.919422 0.479217 5.76039e-06 0.434405 0.912892 0.542818 4.46645e-09 0.000157331 0.673042 3.49399e-07 8.33062e-06 2.42345e-06 6.16323e-05 1.6923e-08 0.789941 0.00403603 0.153908 0.399988 4.46645e-09 0.393381 0.000425284 6.21089e-10 6.17036e-10 0.99432 0.000705084 0.514292 4.42555e-05 5.41779e-08 0.000705084 0.66381 4.18495e-05 1.04772e-07 4.61276e-06 2.10901e-08 0.0505895 2.34778e-08 1.00681 7.58754e-07 0.393247 0.187543 1.61534e-05 2.88095e-08 6.97512e-07 3.13132e-09 8.68069e-05 0.0773391 1.16697e-08 0.00151096 0.919422 1.16697e-08 7.29789e-07 0.23011 2.00391e-09 0.542818 0.000237451 3.42138e-05 0.94865 0.848855 0.136507 1.10621e-08 5.78851e-09 0.657465 1.34433e-07 7.29789e-07 3.48747e-09 0.27464 0.184973 0.00403603 0.371127 2.4788e-08 3.89469e-09 1.00681 1.97283e-08 0.130161 0.0824302 1.12037 0.179448 1.09841e-08 1.32488e-09 0.00103121 1.89305e-07 0.657465 1.11547 0.313432 0.136507 1.23799e-05 1.68594e-06 1.07467 5.26566e-05 7.58754e-07 0.000209614 6.13175e-07 0.0773391 1.5044e-05 1.89305e-07 0.790107 2.44056e-08 0.161465 1.55471e-05 0.631062 0.50937 0.45141 3.48316e-07 7.55742e-08 3.89469e-09 0.514292 0.000157331 4.61276e-06 0.495708 0.0773391 0.153908 3.48316e-07 7.58754e-07 1.38398e-06 1.23799e-05 2.5907e-09 0.316217 5.60239e-07 0.00145277 0.000306373 0.8063 0.000331293 0.332003 0.0978407 0.763876 1.76443e-09 0.90618 1.60998e-08 0.187543 9.86599e-09 0.0646441 3.38072e-08 1.14453e-06 0.00370628 0.631062 7.9236e-08 4.69927e-06 0.343308 0.32239 0.000306373 0.399988 0.90618 0.736473 2.24794e-07 0.0032488 0.00760007 0.393247 9.86599e-09 0.36504 1.60998e-08 1.04772e-07 1.86103e-08 3.09214e-07 0.0097703 7.9236e-08 0.32239 1.09841e-08 0.184059 1.5044e-05 0.000209614 0.27464 0.0978407 0.0505895 0.437452 4.61276e-06 0.000319359 2.34778e-08 0.136507 0.542818 7.29789e-07 0.000586701 0.136507 3.49399e-07 0.184973 3.49399e-07 0.187543 3.42138e-05 0.00370628 0.00103121 0.000116047 0.000157331 0.00760007 0.343308 0.50937 0.0097703 1.14453e-06 0.23011 2.34778e-08 2.34778e-08 4.46645e-09 0.0032488 0.000319359 2.24794e-07 1.0952e-09 1.16697e-08 7.9236e-08 1.1995e-07 1.68594e-06 0.179448 0.0646441 0.118662 0.000160982 0.00145277 1.10621e-08 1.61534e-05 0.631062 5.41779e-08 6.13175e-07 5.48914e-07 1.97283e-08 0.153908 0.130161 1.11547 0.980966 5.48914e-07 0.0824302 0.32239 0.161465 2.48184e-10 4.69927e-06 0.118662 0.153908 2.10901e-08 0.00103121 0.33356 0.163146 0.000137838 0.708918 5.26566e-05 1.81312e-09 5.96913e-06 3.48747e-09 0.495708 0.36504 1.55471e-05 5.48914e-07 0.249242 1.18023e-09 3.42138e-05 0.000425284 7.58754e-07 1.97283e-08 0.848855 0.000510187 6.80038e-10 0.657465 0.573608 0.919422 0.442722 0.399988 0.252014 0.000137838 0.8063 1.23542e-08 3.09214e-07 0.000237451 0.343308 6.16323e-05 1.1995e-07 0.919422 0.763876 2.24794e-07 0.313432 0.789941 1.76443e-09 5.76039e-06 5.78851e-09 0.0773391 1.10185 5.96913e-06 0.790107 1.32488e-09 0.184059 0.673042 0.00370628 0.66381 0.000160982 3.49399e-07 0.514292 7.22055e-10 1.65194e-09 3.37504e-10 3.48747e-09 1.14226 0.000157331 0.626025 1.04461 0.179448 1.61534e-05 0.334198 8.33062e-06 0.00151096 0.511974 1.06245 6.13175e-07 0.0505895 0.736473 3.42967e-09 5.76039e-06 1.68594e-06 
</DataArray>
<DataArray type="Float64" Name="cell variable 5" format="ascii">
0.0909148 0.999974 1 1 0.138655 0.998946 1 0.0109898 0.99999 0.999998 0.158855 0.0417277 1 0.00908091 1 0.999966 0.082177 1 0.0294962 0.277231 1 0.0100133 0.0367488 1 1 0.0391044 0.0606986 1 1 0.273099 0.0831765 0.0248813 0.0102849 1 0.0496613 1 0.0698059 0.226167 0.994257 1 0.136034 1 1 1 0.999997 0.99999 1 0.0503251 1 1 1 0.158855 0.0485429 0.0824658 0.021599 1 0.00878122 1 0.00797274 0.0118572 0.0294962 0.277231 0.221374 0.00858434 1 0.0328244 0.00790366 1 1 1 1 1 0.0467791 0.999994 0.512105 1 0.999999 0.796223 1 1 1 0.999894 1 0.998946 1 1 0.595425 0.00816951 0.00760594 0.0676886 0.226167 0.0195097 1 0.999997 1 0.999254 0.415271 1 1 1 0.037893 1 1 0.0923878 0.0244954 0.0116913 0.0417277 1 0.0503251 0.0118572 0.0328244 1 0.999998 0.021599 1 1 1 1 1 0.0157727 0.998374 0.296844 0.0588268 1 0.0606986 0.999982 1 1 0.0100133 0.99995 0.0364304 1 1 0.99995 0.0221905 1 1 1 1 0.796223 1 0.00976872 1 0.0607373 0.221374 1 1 1 1 0.999999 0.62573 1 0.999772 0.0116913 1 1 0.158855 1 0.0328244 0.999994 1 0.0109898 0.0136882 0.349234 1 1 0.0226112 1 1 1 0.117059 0.226167 0.998374 0.0676886 1 1 0.00976872 1 0.371169 0.595425 0.00790366 0.236958 1 1 0.999894 1 0.0226112 0.00797274 0.0923878 0.349234 1 1 0.00858434 1 1 0.999996 1 0.62573 1 1 0.0157662 1 0.277231 1 0.0244954 0.0371116 0.0467791 1 1 1 0.0364304 0.999998 1 0.0391044 0.62573 0.296844 1 1 1 1 1 0.0909148 1 0.999789 0.999991 0.0151488 0.999989 0.0831765 0.510913 0.016849 1 0.0120314 1 0.221374 1 0.705275 1 1 0.998628 0.0244954 1 1 0.0782104 0.0877689 0.999991 0.0588268 0.0120314 0.0181031 1 0.998946 0.994257 0.0607373 1 0.0698059 1 1 1 1 0.990544 1 0.0877689 1 0.227907 1 0.999996 0.117059 0.510913 0.796223 0.0496613 1 0.99999 1 0.349234 0.0328244 1 0.999966 0.349234 1 0.226167 1 0.221374 1 0.998628 0.999894 0.999999 0.999998 0.994257 0.0782104 0.0371116 0.990544 1 0.158855 1 1 1 0.998946 0.99999 1 1 1 1 1 1 0.236958 0.705275 0.415271 0.999997 0.999789 1 1 0.0244954 1 1 1 1 0.296844 0.371169 0.00797274 0.0102849 1 0.595425 0.0877689 0.277231 1 1 0.415271 0.296844 1 0.999894 0.0824658 0.273099 0.999998 0.0195097 1 1 1 1 0.0391044 0.0698059 1 1 0.138655 1 1 0.999982 1 1 0.0136882 0.999974 1 0.0226112 0.0294962 0.0116913 0.0485429 0.0588268 0.136034 0.999998 0.0151488 1 1 0.999994 0.0782104 1 1 0.0116913 0.016849 1 0.0923878 0.0157727 1 1 1 0.62573 0.00816951 1 0.0157662 1 0.227907 0.021599 0.998628 0.0221905 0.999997 1 0.0364304 1 1 1 1 0.00760594 0.999998 0.0248813 0.00908091 0.236958 1 0.082177 1 0.999772 0.0367488 0.00878122 1 0.796223 0.0181031 1 1 1 
</DataArray>
<DataArray type="Float64" Name="cell variable 6" format="ascii">
0.0038835 1.00883 1.00913 1.00917 0.0566856 1.00681 1.00917 1.10661e-05 1.00896 1.00908 0.0671729 0.00051123 1.00917 6.33494e-06 1.00917 1.00878 0.00576492 1.00917 0.000187165 0.298329 1.00917 8.43313e-06 0.00035504 1.00917 1.00917 0.000410215 0.00151522 1.00917 1.00917 0.294057 0.00364689 0.000115922 9.11938e-06 1.00915 0.000885689 1.00917 0.0019794 0.208208 1.00277 1.00917 0.0441278 1.00917 1.00917 1.00917 1.00907 1.00896 1.00917 0.000857904 1.00917 1.00917 1.00917 0.0671729 0.000858618 0.00403961 7.76673e-05 1.00917 5.74138e-06 1.00917 4.32387e-06 1.38076e-05 0.000187165 0.298329 0.185318 5.3719e-06 1.00916 0.000251962 4.21468e-06 1.00917 1.00917 1.00917 1.00915 1.00917 0.000696942 1.00902 0.67289 1.00917 1.0091 0.900072 1.00917 1.00916 1.00914 1.00849 1.00917 1.00681 1.00917 1.00917 0.752638 4.64493e-06 3.76475e-06 0.0019189 0.208208 5.81379e-05 1.00914 1.00907 1.00914 1.00716 0.533485 1.00917 1.00917 1.00917 0.000380196 1.00917 1.00917 0.00439847 0.000110922 1.32528e-05 0.00051123 1.00917 0.000857904 1.38076e-05 0.000251962 1.00917 1.00907 7.76673e-05 1.00917 1.00917 1.00917 1.00913 1.00917 3.156e-05 1.00605 0.3398 0.00127682 1.00917 0.00151522 1.00889 1.00917 1.00917 8.43313e-06 1.0087 0.000349016 1.00914 1.00917 1.0087 8.3838e-05 1.00915 1.00917 1.00917 1.00917 0.900072 1.00917 7.8448e-06 1.00917 0.00202135 0.185318 1.00916 1.00917 1.00917 1.00917 1.00912 0.780596 1.00917 1.00816 1.32528e-05 1.00917 1.00917 0.0671729 1.00917 0.000251962 1.00902 1.00915 1.10661e-05 2.09522e-05 0.432355 1.00917 1.00917 8.84138e-05 1.00917 1.00917 1.00917 0.02163 0.208208 1.00605 0.0019189 1.00917 1.00917 7.8448e-06 1.00917 0.477444 0.752638 4.21468e-06 0.235078 1.00917 1.00917 1.00849 1.00917 8.84138e-05 4.32387e-06 0.00439847 0.432355 1.00917 1.00917 5.3719e-06 1.00914 1.00917 1.00904 1.00917 0.780596 1.00916 1.00917 3.15261e-05 1.00917 0.298329 1.00916 0.000110922 0.000394946 0.000696942 1.00917 1.00917 1.00917 0.000349016 1.00907 1.00917 0.000410215 0.780596 0.3398 1.00917 1.00917 1.00917 1.00917 1.00917 0.0038835 1.00917 1.00814 1.00897 2.80904e-05 1.00895 0.00364689 0.674122 3.81646e-05 1.00917 1.4406e-05 1.00917 0.185318 1.00917 0.841792 1.00917 1.00917 1.00642 0.000110922 1.00917 1.00917 0.00310284 0.00628005 1.00897 0.00127682 1.4406e-05 4.69278e-05 1.00917 1.00681 1.00277 0.00202135 1.00917 0.0019794 1.00917 1.00917 1.00917 1.00917 1.00014 1.00917 0.00628005 1.00917 0.235443 1.00916 1.00904 0.02163 0.674122 0.900072 0.000885689 1.00917 1.00896 1.00917 0.432355 0.000251962 1.00917 1.00878 0.432355 1.00917 0.208208 1.00917 0.185318 1.00915 1.00642 1.00849 1.0091 1.00907 1.00277 0.00310284 0.000394946 1.00014 1.00917 0.0671729 1.00917 1.00917 1.00917 1.00681 1.00896 1.00917 1.00917 1.00917 1.00917 1.00917 1.00917 0.235078 0.841792 0.533485 1.00907 1.00814 1.00917 1.00916 0.000110922 1.00917 1.00917 1.00917 1.00917 0.3398 0.477444 4.32387e-06 9.11938e-06 1.00917 0.752638 0.00628005 0.298329 1.00917 1.00917 0.533485 0.3398 1.00917 1.00849 0.00403961 0.294057 1.00908 5.81379e-05 1.00914 1.00917 1.00917 1.00917 0.000410215 0.0019794 1.00916 1.00917 0.0566856 1.00917 1.00915 1.00889 1.00917 1.00917 2.09522e-05 1.00883 1.00917 8.84138e-05 0.000187165 1.32528e-05 0.000858618 0.00127682 0.0441278 1.00908 2.80904e-05 1.00917 1.00917 1.00902 0.00310284 1.00913 1.00917 1.32528e-05 3.81646e-05 1.00917 0.00439847 3.156e-05 1.00917 1.00917 1.00917 0.780596 4.64493e-06 1.00917 3.15261e-05 1.00917 0.235443 7.76673e-05 1.00642 8.3838e-05 1.00907 1.00917 0.000349016 1.00917 1.00917 1.00917 1.00917 3.76475e-06 1.00907 0.000115922 6.33494e-06 0.235078 1.00916 0.00576492 1.00917 1.00816 0.00035504 5.74138e-06 1.00917 0.900072 4.69278e-05 1.00917 1.00917 1.00917 
</DataArray>
<DataArray type="Float64" Name="cell variable 7" format="ascii">
0.357275 0.805214 0.804393 0.960394 0.413855 0.731648 0.944982 0.109939 0.786592 0.818915 0.46057 0.24144 0.895885 0.091923 0.908704 0.789622 0.334908 0.89681 0.203114 0.543895 0.953353 0.10127 0.2268 0.962378 0.945385 0.233945 0.290041 0.908704 0.944982 0.531783 0.340125 0.185875 0.103782 0.881455 0.262734 0.924335 0.311423 0.488241 0.695937 0.865788 0.422896 0.91048 0.886845 0.876672 0.804465 0.786592 0.980133 0.264653 0.95837 0.933796 0.963699 0.46057 0.259721 0.337987 0.172124 0.945385 0.0886341 0.95837 0.0788486 0.116913 0.203114 0.543895 0.511928 0.0863829 0.87201 0.214434 0.0779382 0.968141 0.947397 0.947968 0.828165 0.967203 0.255368 0.815305 0.58928 0.926812 0.821805 0.667622 0.876672 0.855098 0.808066 0.74517 0.910934 0.731648 0.951959 0.91184 0.652741 0.0813708 0.0738515 0.306453 0.488241 0.162493 0.808066 0.804465 0.85435 0.786302 0.633332 0.91048 0.900885 0.926956 0.230311 0.937093 0.922196 0.360012 0.184332 0.115625 0.24144 0.912087 0.264653 0.116913 0.214434 0.96428 0.802201 0.172124 0.887905 0.869271 0.886845 0.804393 0.966248 0.142859 0.781706 0.544906 0.285858 0.96428 0.290041 0.777768 0.969761 0.968141 0.10127 0.790771 0.225806 0.85435 0.955764 0.790771 0.174715 0.828165 0.926865 0.89681 0.945385 0.667622 0.922008 0.0989326 0.900971 0.288948 0.511928 0.855098 0.95287 0.921346 0.970096 0.812727 0.646851 0.962378 0.723507 0.115625 0.962378 0.91184 0.46057 0.966983 0.214434 0.815305 0.881455 0.109939 0.129973 0.58017 0.947397 0.969413 0.176526 0.953353 0.91184 0.970553 0.399197 0.488241 0.781706 0.306453 0.95286 0.960718 0.0989326 0.947968 0.557964 0.652741 0.0779382 0.481302 0.955946 0.978562 0.74517 0.938631 0.176526 0.0788486 0.360012 0.58017 0.864126 0.922196 0.0863829 0.808066 0.900971 0.803638 0.926956 0.646851 0.867885 0.938631 0.142821 0.952017 0.543895 0.87201 0.184332 0.227704 0.255368 0.905229 0.926812 0.960718 0.225806 0.802201 0.89681 0.233945 0.646851 0.544906 0.905229 0.900971 0.900885 0.864126 0.967203 0.357275 0.910934 0.822606 0.774006 0.139181 0.823381 0.340125 0.570965 0.148901 0.962923 0.118245 0.969235 0.511928 0.963751 0.663687 0.960394 0.908704 0.736426 0.184332 0.937093 0.865788 0.329428 0.347352 0.774006 0.285858 0.118245 0.15552 0.921969 0.731648 0.695937 0.288948 0.963751 0.311423 0.969235 0.926865 0.933796 0.914119 0.724735 0.937093 0.347352 0.955946 0.426674 0.867885 0.803638 0.399197 0.570965 0.667622 0.262734 0.89681 0.786592 0.922008 0.58017 0.214434 0.91184 0.789622 0.58017 0.887905 0.488241 0.887905 0.511928 0.881455 0.736426 0.74517 0.821805 0.802201 0.695937 0.329428 0.227704 0.724735 0.908704 0.46057 0.922008 0.922008 0.96428 0.731648 0.786592 0.921969 0.965959 0.962378 0.937093 0.91048 0.922196 0.481302 0.663687 0.633332 0.804465 0.822606 0.947397 0.855098 0.184332 0.955764 0.926956 0.895885 0.947968 0.544906 0.557964 0.0788486 0.103782 0.895885 0.652741 0.347352 0.543895 0.983128 0.865788 0.633332 0.544906 0.945385 0.74517 0.337987 0.531783 0.818915 0.162493 0.808066 0.951959 0.876672 0.970553 0.233945 0.311423 0.87201 0.895885 0.413855 0.96829 0.881455 0.777768 0.900971 0.947968 0.129973 0.805214 0.962912 0.176526 0.203114 0.115625 0.259721 0.285858 0.422896 0.818915 0.139181 0.944982 0.914119 0.815305 0.329428 0.804393 0.91048 0.115625 0.148901 0.921969 0.360012 0.142859 0.962923 0.912087 0.969413 0.646851 0.0813708 0.876672 0.142821 0.978562 0.426674 0.172124 0.736426 0.174715 0.804465 0.887905 0.225806 0.978092 0.973522 0.974211 0.970553 0.0738515 0.802201 0.185875 0.091923 0.481302 0.855098 0.334908 0.869271 0.723507 0.2268 0.0886341 0.926956 0.667622 0.15552 0.963699 0.912087 0.922196 
</DataArray>
<DataArray type="Float64" Name="cell variable 8" format="ascii">