<VTKFile type="UnstructuredGrid" version="0.1">
<UnstructuredGrid>
<Piece  NumberOfPoints="    2510" NumberOfCells="     419">
<Points>
<DataArray type="Float64" NumberOfComponents="3" format="ascii">
-2.04015 -14.3781 0.0
-1.04616 -16.2337 0.0
1.498 -15.578 0.0
1.19558 -13.2168 0.0
-0.310899 -8.42499 0.0
-1.23049 -8.30468 0.0
-1.66993 -8.51386 0.0
-2.99126 -11.5674 0.0
32.0861 21.7508 0.0
32.3001 21.7318 0.0
35.8019 26.8339 0.0
29.3361 26.4385 0.0
29.4331 25.8652 0.0
-5.0679 -58.6204 0.0
-4.57261 -57.1598 0.0
-13.0304 -57.8806 0.0
-15.5595 -60.3214 0.0
-14.9272 -61.1324 0.0
-7.28068 -59.5791 0.0
-9.22254 39.8705 0.0
-9.9807 37.9526 0.0
-1.65331 38.961 0.0
-1.85465 39.7631 0.0
-5.65356 42.0049 0.0
-6.046 41.8464 0.0
-53.3801 -18.567 0.0
-53.3374 -17.8332 0.0
-55.4708 -9.16335 0.0
-56.1888 -9.74358 0.0
-55.9019 -19.1405 0.0
-55.441 -19.9159 0.0
-53.8291 -19.6832 0.0
28.1177 -45.9684 0.0
21.6543 -48.5925 0.0
20.3726 -53.1845 0.0
22.7005 -52.827 0.0
23.6078 -52.5221 0.0
29.4867 -46.675 0.0
12.0073 -2.21606 0.0
10.9256 -5.17156 0.0
12.1291 -6.58634 0.0
20.3874 -3.58961 0.0
20.5132 -3.22922 0.0
20.4407 -2.07491 0.0
16.3672 -2.14418 0.0
35.4618 -39.6341 0.0
33.0855 -38.0019 0.0
28.4857 -44.3715 0.0
28.8894 -45.2493 0.0
30.2584 -45.9559 0.0
31.5578 -45.9505 0.0
34.0399 -43.0899 0.0
18.1206 -22.6169 0.0
18.3539 -23.3123 0.0
24.4059 -25.2206 0.0
23.3175 -20.0779 0.0
20.6614 -20.3431 0.0
18.237 -21.7829 0.0
-21.5468 -32.0255 0.0
-22.0761 -32.1895 0.0
-19.5093 -37.8965 0.0
-18.0264 -38.685 0.0
-16.1499 -37.4752 0.0
-15.8784 -36.9056 0.0
-15.8956 -34.9908 0.0
-20.8987 -32.2115 0.0
8.80382 32.1754 0.0
11.7285 31.8108 0.0
12.9774 31.8936 0.0
13.5969 35.6059 0.0
10.4498 36.0986 0.0
7.01828 35.8666 0.0
6.7803 33.7813 0.0
7.1967 33.1756 0.0
0.31495 -32.3137 0.0
-0.241245 -33.7109 0.0
5.99825 -37.9345 0.0
7.74298 -37.6251 0.0
8.51098 -35.0901 0.0
5.24184 -32.7561 0.0
0.812471 -32.3436 0.0
-27.5521 53.1862 0.0
-30.9885 46.8443 0.0
-27.3629 47.1038 0.0
-24.4927 51.1129 0.0
-24.7125 51.4861 0.0
-22.2174 -31.4249 0.0
-22.1423 -28.7919 0.0
-28.0918 -26.6754 0.0
-28.384 -27.7709 0.0
-28.7892 -29.4584 0.0
-25.7648 -31.6429 0.0
-22.7467 -31.5888 0.0
42.8574 -14.727 0.0
40.8277 -14.54 0.0
40.6371 -14.9181 0.0
41.8944 -21.2236 0.0
42.6587 -21.9466 0.0
46.1164 -20.5995 0.0
47.2626 -19.3035 0.0
-51.6198 -10.8601 0.0
-49.879 -12.1353 0.0
-44.03 -11.3843 0.0
-46.3023 -9.88578 0.0
-52.9864 -7.1153 0.0
-53.0054 -7.17538 0.0
-12.8563 33.9916 0.0
-16.9117 32.9258 0.0
-17.9776 32.4575 0.0
-18.2666 26.8371 0.0
-18.0412 25.7499 0.0
-15.8871 27.1753 0.0
-12.93 29.1402 0.0
-12.5536 29.8231 0.0
36.677 7.10331 0.0
42.1039 7.00896 0.0
46.1146 8.84289 0.0
45.8672 9.40927 0.0
40.2388 10.9705 0.0
39.8648 11.9813 0.0
40.4579 11.352 0.0
46.0863 9.79071 0.0
45.5057 14.567 0.0
44.0557 15.674 0.0
32.7844 -37.8079 0.0
32.2358 -36.8741 0.0
31.6838 -37.1046 0.0
26.8443 -39.5089 0.0
25.9151 -42.0016 0.0
26.3944 -42.4961 0.0
28.1845 -44.1775 0.0
-45.8216 -9.64171 0.0
-43.5494 -11.1402 0.0
-42.7806 -11.5119 0.0
-41.8047 -6.84157 0.0
-42.5402 -5.58376 0.0
-47.463 -4.55348 0.0
-49.0756 35.6653 0.0
-45.5954 35.6756 0.0
-43.7423 36.5982 0.0
-42.9371 38.3138 0.0
-42.4442 42.8162 0.0
-43.4489 43.3966 0.0
-44.0891 43.1243 0.0
24.0083 26.8212 0.0
26.6736 28.7783 0.0
26.6125 30.7941 0.0
26.1153 31.614 0.0
22.4477 34.1299 0.0
22.1227 34.0671 0.0
-27.0505 12.9807 0.0
-25.6475 14.0075 0.0
-26.42 20.4321 0.0
-30.7852 19.6116 0.0
-12.002 30.1018 0.0
-9.04362 31.1681 0.0
-6.83191 35.4491 0.0
-11.7943 34.7585 0.0
-12.3046 34.2704 0.0
21.7404 -4.85901 0.0
21.7316 -5.03248 0.0
24.7633 -8.69368 0.0
32.2106 -8.66776 0.0
33.4471 -7.88079 0.0
-36.3993 0.0803254 0.0
-33.9988 -0.589081 0.0
-32.3226 3.02226 0.0
-38.0369 8.36787 0.0
-0.247589 20.358 0.0
-2.49802 14.6234 0.0
-2.23208 13.0696 0.0
0.869862 14.5634 0.0
3.3282 16.5548 0.0
-26.9243 46.9933 0.0
-27.1244 46.3695 0.0
-22.5797 46.6529 0.0
-19.4735 49.311 0.0
-19.5419 50.2339 0.0
-24.0542 51.0024 0.0
59.7866 4.6055 0.0
59.6532 4.88695 0.0
54.1803 0.568244 0.0
54.2029 -4.77191 0.0
57.9096 -1.6378 0.0
4.53422 38.3795 0.0
5.06266 38.2987 0.0
5.63445 39.7929 0.0
7.63123 45.0218 0.0
3.72732 49.0928 0.0
2.84407 46.2145 0.0
-36.8267 35.7231 0.0
-34.9629 36.0592 0.0
-33.5659 38.977 0.0
-34.3205 42.1719 0.0
-34.843 42.4198 0.0
-38.6166 39.9628 0.0
23.5386 45.2554 0.0
23.8174 47.5828 0.0
19.2383 52.9536 0.0
18.049 51.8166 0.0
17.903 51.4678 0.0
18.8278 47.1929 0.0
0.265268 -41.1391 0.0
-0.517492 -40.7265 0.0
-2.02721 -41.3011 0.0
-3.64444 -43.8477 0.0
-3.1334 -47.3149 0.0
-0.0975993 -47.6183 0.0
24.7554 -30.5892 0.0
31.6035 -27.2566 0.0
32.0265 -24.506 0.0
25.7753 -25.999 0.0
25.4075 -26.1829 0.0
23.3107 -29.0615 0.0
24.5461 -30.5258 0.0
24.7134 -30.5806 0.0
-26.8878 -11.5631 0.0
-26.9112 -11.9008 0.0
-25.9125 -13.5357 0.0
-22.5442 -13.442 0.0
-19.7552 -12.898 0.0
-19.8764 -10.1866 0.0
1.46333 32.3921 0.0
4.02704 32.0736 0.0
6.16759 33.8393 0.0
6.40557 35.9247 0.0
6.27992 36.1875 0.0
4.97795 37.3634 0.0
4.44951 37.4442 0.0
3.48101 37.3246 0.0
49.7392 -26.7067 0.0
49.9975 -25.4396 0.0
46.4205 -21.1392 0.0
42.9628 -22.4862 0.0
42.7653 -23.3545 0.0
53.2655 1.60073 0.0
52.9607 6.47267 0.0
52.6444 6.45467 0.0
49.8686 5.79203 0.0
49.3197 -2.45303 0.0
-16.3527 53.9672 0.0
-18.406 50.9288 0.0
-9.90027 51.3689 0.0
-9.63243 52.2628 0.0
55.6753 -10.5703 0.0
54.5219 -10.359 0.0
53.6009 -18.1198 0.0
55.0657 -18.8022 0.0
56.3892 -18.2281 0.0
57.1706 -12.0655 0.0
57.1027 -11.3671 0.0
29.3428 -17.1171 0.0
30.1027 -17.5888 0.0
39.7992 -12.806 0.0
39.76 -12.3993 0.0
39.5773 -10.7071 0.0
38.9487 -10.5559 0.0
35.1416 -13.0727 0.0
-27.0307 41.6191 0.0
-28.3236 40.3168 0.0
-27.8734 39.4635 0.0
-24.1329 38.0781 0.0
-23.1311 38.725 0.0
-22.7888 39.1043 0.0
-21.0941 43.0537 0.0
-48.9581 -29.6384 0.0
-49.9367 -30.5268 0.0
-49.978 -35.2569 0.0
-46.9599 -36.7529 0.0
-44.1138 -33.4053 0.0
-47.2366 -30.9948 0.0
-46.8068 -30.7467 0.0
-43.684 -33.1572 0.0
-41.7447 -32.4836 0.0
-40.8542 -32.075 0.0
-41.323 -29.8416 0.0
-42.2767 -28.2949 0.0
46.0758 3.08658 0.0
45.798 1.41469 0.0
47.7258 -5.05834 0.0
48.428 -4.78244 0.0
48.981 -2.60722 0.0
49.5298 5.63783 0.0
47.7624 6.29501 0.0
27.1468 -17.951 0.0
23.8518 -19.9341 0.0
24.9402 -25.0768 0.0
25.3253 -25.5454 0.0
25.6932 -25.3614 0.0
30.7895 -19.3558 0.0
29.2395 -18.299 0.0
28.4796 -17.8274 0.0
-20.3001 -7.20768 0.0
-20.2551 -6.86291 0.0
-27.2934 -4.1926 0.0
-28.6719 -4.73907 0.0
-27.036 -8.56118 0.0
17.4605 51.3318 0.0
15.8674 50.9082 0.0
13.7515 44.7409 0.0
13.8643 44.6751 0.0
14.9223 44.1821 0.0
16.7705 44.7091 0.0
18.3852 47.0569 0.0
34.446 -43.3594 0.0
31.9639 -46.22 0.0
33.0311 -47.3074 0.0
33.3269 -47.3934 0.0
37.9219 -46.2558 0.0
40.9036 -43.4679 0.0
41.1608 -43.0817 0.0
1.69411 -13.8335 0.0
1.99653 -16.1947 0.0
4.26305 -23.4283 0.0
6.11148 -21.6194 0.0
6.42145 -17.5191 0.0
11.9222 -8.68457 0.0
11.0433 -12.3059 0.0
13.5224 -13.8845 0.0
14.5526 -13.9757 0.0
17.285 -9.29204 0.0
-20.0251 -2.57708 0.0
-21.3979 2.21028 0.0
-26.5956 0.944668 0.0
-24.5892 -2.21707 0.0
-20.6163 -31.8162 0.0
-15.6133 -34.5955 0.0
-12.7263 -31.9807 0.0
-12.7615 -29.4294 0.0
-14.4375 -28.4354 0.0
9.52722 -21.009 0.0
12.7163 -21.2385 0.0
16.3632 -20.5523 0.0
15.7368 -17.1295 0.0
15.2855 -15.5225 0.0
14.5128 -14.7196 0.0
13.4826 -14.6285 0.0
-1.7413 32.6826 0.0
1.08123 32.4172 0.0
3.09891 37.3497 0.0
-0.497124 37.0266 0.0
-1.02549 36.3628 0.0
-2.26289 33.3545 0.0
-14.8926 -9.9504 0.0
-15.2188 -5.42418 0.0
-15.286 -4.48122 0.0
-15.6285 -3.95311 0.0
-18.6957 -3.88248 0.0
-19.4388 -6.86839 0.0
-19.4838 -7.21316 0.0
-19.3385 -7.7501 0.0
-20.6527 -49.8116 0.0
-21.1747 -49.4023 0.0
-25.2298 -52.9066 0.0
-21.49 -55.9466 0.0
-20.3991 -53.518 0.0
16.2807 -17.1274 0.0
16.9072 -20.5501 0.0
17.9757 -21.385 0.0
20.4001 -19.9452 0.0
22.0207 -16.0373 0.0
53.7041 0.224455 0.0
53.3234 0.992838 0.0
49.3777 -3.06092 0.0
48.8247 -5.23613 0.0
52.8973 -6.86588 0.0
53.7266 -5.1157 0.0
33.3287 20.8874 0.0
32.7302 20.8499 0.0
33.6881 12.9095 0.0
35.6248 13.5345 0.0
37.7113 16.6372 0.0
-0.803618 -17.0144 0.0
1.82353 -24.1826 0.0
3.86446 -23.944 0.0
4.00705 -23.5922 0.0
1.74053 -16.3587 0.0
-15.2108 -36.9649 0.0
-9.16456 -39.8382 0.0
-9.67548 -34.9767 0.0
-10.8237 -33.4394 0.0
-12.341 -32.4354 0.0
-15.228 -35.0501 0.0
-20.4198 32.8207 0.0
-19.0402 33.2954 0.0
-16.95 39.9304 0.0
-22.3062 38.7305 0.0
-22.6486 38.3512 0.0
0.727031 -31.8351 0.0
5.1564 -32.2477 0.0
5.14001 -29.2548 0.0
5.12328 -26.172 0.0
4.65995 -25.6822 0.0
-40.6529 -2.14643 0.0
-40.6661 -2.46942 0.0
-35.1903 -5.64046 0.0
-34.0653 -2.68432 0.0
-33.853 -1.73781 0.0
-34.1669 -1.16113 0.0
-36.5674 -0.491724 0.0
-39.9088 -0.505821 0.0
-5.75315 1.81878 0.0
-8.20744 0.190792 0.0
-2.09259 -5.92519 0.0
-3.62107 -0.416223 0.0
-3.93634 0.388939 0.0
-46.127 32.3148 0.0
-45.939 35.0797 0.0
-49.4193 35.0694 0.0
-49.8923 34.7452 0.0
-50.1799 34.3713 0.0
-50.9256 32.3517 0.0
-50.0553 29.8622 0.0
-11.0358 -43.5855 0.0
-10.5165 -43.9584 0.0
-6.12851 -42.8108 0.0
-9.04754 -40.3441 0.0
-15.0938 -37.4708 0.0
-15.3653 -38.0404 0.0
-38.6855 11.935 0.0
-38.6202 9.85668 0.0
-37.9153 8.78722 0.0
-32.201 3.44161 0.0
-30.2478 4.61856 0.0
-29.4729 6.39627 0.0
-34.8753 9.66893 0.0
-0.939649 7.08334 0.0
-0.962924 7.96984 0.0
-3.42687 10.537 0.0
-6.97902 8.55437 0.0
-6.89098 7.54296 0.0
-6.08542 5.10934 0.0
-21.6791 2.61418 0.0
-21.6375 3.18611 0.0
-22.0122 3.80409 0.0
-23.3703 4.72676 0.0
-28.3348 6.33144 0.0
-28.6478 6.02798 0.0
-29.4226 4.25027 0.0
-27.9395 2.32012 0.0
-26.8767 1.34858 0.0
-42.1451 4.78387 0.0
-43.8998 5.36098 0.0
-48.0387 2.08878 0.0
-40.9685 0.494871 0.0
-28.2884 -39.8129 0.0
-28.0603 -39.1578 0.0
-31.4608 -30.5322 0.0
-31.7131 -30.526 0.0
-34.5883 -34.3743 0.0
-30.0238 -38.8462 0.0
-18.3884 50.6857 0.0
-18.6292 50.3468 0.0
-18.5607 49.424 0.0
-18.1813 48.9689 0.0
-12.1626 48.1449 0.0
-10.4518 49.0663 0.0
-9.88264 51.1258 0.0
-21.551 -31.2836 0.0
-20.9029 -31.4696 0.0
-14.7241 -28.0888 0.0
-17.8024 -24.8394 0.0
-20.29 -25.6335 0.0
-21.4759 -28.6506 0.0
16.2542 12.7002 0.0
16.3462 10.7296 0.0
17.8484 9.26775 0.0
[...]
<CellData Scalars="cell variable 4" Vectors="cell vector">
<DataArray type="Float64" NumberOfComponents="3" Name="cell vector" format="ascii">
0 0 0
0 0 0
0 0 0
0 0 0
0 0 0
0 0 0
0 0 0
0 0 0
0 0 0
0 0 0
0 0 0
0 0 0
0 0 0
0 0 0
0 0 0
0 0 0
0 0 0
0 0 0
0 0 0
0 0 0
0 0 0
0 0 0
0 0 0
0 0 0
0 0 0
0 0 0
0 0 0
0 0 0
0 0 0
0 0 0
0 0 0
0 0 0
0 0 0
0 0 0
0 0 0
0 0 0
0 0 0
0 0 0
0 0 0
0 0 0
0 0 0
0 0 0
0 0 0
0 0 0
0 0 0
0 0 0
0 0 0
0 0 0
0 0 0
0 0 0
0 0 0
0 0 0
0 0 0
0 0 0
0 0 0
0 0 0
0 0 0
0 0 0
0 0 0
0 0 0
0 0 0
0 0 0
0 0 0
0 0 0
0 0 0
0 0 0
0 0 0
0 0 0
0 0 0
0 0 0
0 0 0
0 0 0
0 0 0
0 0 0
0 0 0
0 0 0
0 0 0
0 0 0
0 0 0
0 0 0
0 0 0
0 0 0
0 0 0
0 0 0
0 0 0
0 0 0
0 0 0
0 0 0
0 0 0
0 0 0
0 0 0
0 0 0
0 0 0
0 0 0
0 0 0
0 0 0
0 0 0
0 0 0
0 0 0
0 0 0
0 0 0
0 0 0
0 0 0
0 0 0
0 0 0
0 0 0
0 0 0
0 0 0
0 0 0
0 0 0
0 0 0
0 0 0
0 0 0
0 0 0
0 0 0
0 0 0
0 0 0
0 0 0
0 0 0
0 0 0
0 0 0
0 0 0
0 0 0
0 0 0
0 0 0
0 0 0
0 0 0
0 0 0
0 0 0
0 0 0
0 0 0
0 0 0
0 0 0
0 0 0
0 0 0
0 0 0
0 0 0
0 0 0
0 0 0
0 0 0
0 0 0
0 0 0
0 0 0
0 0 0
0 0 0
0 0 0
0 0 0
0 0 0
0 0 0
0 0 0
0 0 0
0 0 0
0 0 0
0 0 0
0 0 0
0 0 0
0 0 0
0 0 0
0 0 0
0 0 0
0 0 0
0 0 0
0 0 0
0 0 0
0 0 0
0 0 0
0 0 0
0 0 0
0 0 0
0 0 0
0 0 0
0 0 0
0 0 0
0 0 0
0 0 0
0 0 0
0 0 0
0 0 0
0 0 0
0 0 0
0 0 0
0 0 0
0 0 0
0 0 0
0 0 0
0 0 0
0 0 0
0 0 0
0 0 0
0 0 0
0 0 0
0 0 0
0 0 0
0 0 0
0 0 0
0 0 0
0 0 0
0 0 0
0 0 0
0 0 0
0 0 0
0 0 0
0 0 0
0 0 0
0 0 0
0 0 0
0 0 0
0 0 0
0 0 0
0 0 0
0 0 0
0 0 0
0 0 0
0 0 0
0 0 0
0 0 0
0 0 0
0 0 0
0 0 0
0 0 0
0 0 0
0 0 0
0 0 0
0 0 0
0 0 0
0 0 0
0 0 0
0 0 0
0 0 0
0 0 0
0 0 0
0 0 0
0 0 0
0 0 0
0 0 0
0 0 0
0 0 0
0 0 0
0 0 0
0 0 0
0 0 0
0 0 0
0 0 0
0 0 0
0 0 0
0 0 0
0 0 0
0 0 0
0 0 0
0 0 0
0 0 0
0 0 0
0 0 0
0 0 0
0 0 0
0 0 0
0 0 0
0 0 0
0 0 0
0 0 0
0 0 0
0 0 0
0 0 0
0 0 0
0 0 0
0 0 0
0 0 0
0 0 0
0 0 0
0 0 0
0 0 0
0 0 0
0 0 0
0 0 0
0 0 0
0 0 0
0 0 0
0 0 0
0 0 0
0 0 0
0 0 0
0 0 0
0 0 0
0 0 0
0 0 0
0 0 0
0 0 0
0 0 0
0 0 0
0 0 0
0 0 0
0 0 0
0 0 0
0 0 0
0 0 0
0 0 0
0 0 0
0 0 0
0 0 0
0 0 0
0 0 0
0 0 0
0 0 0
0 0 0
0 0 0
0 0 0
0 0 0
0 0 0
0 0 0
0 0 0
0 0 0
0 0 0
0 0 0
0 0 0
0 0 0
0 0 0
0 0 0
0 0 0
0 0 0
0 0 0
0 0 0
0 0 0
0 0 0
0 0 0
0 0 0
0 0 0
0 0 0
0 0 0
0 0 0
0 0 0
0 0 0
0 0 0
0 0 0
0 0 0
0 0 0
0 0 0
0 0 0
0 0 0
0 0 0
0 0 0
0 0 0
0 0 0
0 0 0
0 0 0
0 0 0
0 0 0
0 0 0
0 0 0
0 0 0
0 0 0
0 0 0
0 0 0
0 0 0
0 0 0
0 0 0
0 0 0
0 0 0
0 0 0
0 0 0
0 0 0
0 0 0
0 0 0
0 0 0
0 0 0
0 0 0
0 0 0
0 0 0
0 0 0
0 0 0
0 0 0
0 0 0
0 0 0
0 0 0
0 0 0
0 0 0
0 0 0
0 0 0
0 0 0
0 0 0
0 0 0
0 0 0
0 0 0
0 0 0
0 0 0
0 0 0
0 0 0
0 0 0
0 0 0
0 0 0
0 0 0
0 0 0
0 0 0
0 0 0
0 0 0
0 0 0
0 0 0
0 0 0
0 0 0
0 0 0
0 0 0
0 0 0
0 0 0
0 0 0
0 0 0
0 0 0
0 0 0
0 0 0
0 0 0
0 0 0
0 0 0
0 0 0
0 0 0
0 0 0
0 0 0
0 0 0
0 0 0
0 0 0
0 0 0
0 0 0
</DataArray>
<DataArray type="Float64" Name="cell vector length" format="ascii">
0 0 0 0 0 0 0 0 0 0 0 0 0 0 0 0 0 0 0 0 0 0 0 0 0 0 0 0 0 0 0 0 0 0 0 0 0 0 0 0 0 0 0 0 0 0 0 0 0 0 0 0 0 0 0 0 0 0 0 0 0 0 0 0 0 0 0 0 0 0 0 0 0 0 0 0 0 0 0 0 0 0 0 0 0 0 0 0 0 0 0 0 0 0 0 0 0 0 0 0 0 0 0 0 0 0 0 0 0 0 0 0 0 0 0 0 0 0 0 0 0 0 0 0 0 0 0 0 0 0 0 0 0 0 0 0 0 0 0 0 0 0 0 0 0 0 0 0 0 0 0 0 0 0 0 0 0 0 0 0 0 0 0 0 0 0 0 0 0 0 0 0 0 0 0 0 0 0 0 0 0 0 0 0 0 0 0 0 0 0 0 0 0 0 0 0 0 0 0 0 0 0 0 0 0 0 0 0 0 0 0 0 0 0 0 0 0 0 0 0 0 0 0 0 0 0 0 0 0 0 0 0 0 0 0 0 0 0 0 0 0 0 0 0 0 0 0 0 0 0 0 0 0 0 0 0 0 0 0 0 0 0 0 0 0 0 0 0 0 0 0 0 0 0 0 0 0 0 0 0 0 0 0 0 0 0 0 0 0 0 0 0 0 0 0 0 0 0 0 0 0 0 0 0 0 0 0 0 0 0 0 0 0 0 0 0 0 0 0 0 0 0 0 0 0 0 0 0 0 0 0 0 0 0 0 0 0 0 0 0 0 0 0 0 0 0 0 0 0 0 0 0 0 0 0 0 0 0 0 0 0 0 0 0 0 0 0 0 0 0 0 0 0 0 0 0 0 0 0 0 0 0 0 0 0 0 0 0 0 0 0 0 0 0 0 0 0 0 0 0 0 0 0 0 0 0 0 0 0 0 0 0 0 0 0 0 0 0 0 
</DataArray>
<DataArray type="Float64" Name="cell variable 4" format="ascii">
1.11547 1.06245 0.789941 1.07467 0.919422 0.94865 1.11547 0.94865 1.11547 0.90618 1.14226 1.04461 0.99432 1.04461 0.912892 0.919422 1.07467 1.10185 1.10185 0.94865 0.919422 0.99432 1.06245 1.00681 1.07467 1.10185 1.00681 1.14226 0.99432 0.912892 0.980966 0.99432 0.980966 1.04461 1.11547 1.12037 1.07467 0.912892 0.912892 0.763876 0.912892 1.11547 0.99432 0.919422 0.919422 1.10185 1.11547 1.12037 0.980966 0.657465 1.11547 1.11547 1.12037 1.04461 1.11547 1.07467 1.12037 0.90618 1.11547 0.912892 1.10185 1.11547 1.04461 1.07467 1.04461 0.919422 1.12037 1.00681 1.04461 1.00681 1.12037 1.12037 1.00681 0.90618 0.763876 1.04461 1.14226 0.94865 1.00681 1.11547 1.04461 0.919422 1.11547 0.848855 1.11547 1.11547 1.04461 1.10185 1.14226 1.07467 0.94865 0.980966 0.8063 0.657465 0.980966 0.980966 1.00681 0.919422 1.12037 1.11547 1.04461 1.04461 0.919422 0.94865 0.919422 0.919422 0.99432 1.12037 0.631062 0.912892 0.763876 1.00681 1.10185 0.848855 1.00681 1.14226 1.14226 1.07467 1.11547 0.789941 1.14226 1.07467 1.00681 0.94865 1.06245 0.657465 0.789941 0.8063 0.99432 1.04461 1.11547 1.11547 1.00681 1.07467 1.06245 1.06245 1.06245 0.99432 1.04461 0.919422 0.90618 1.00681 1.12037 0.763876 0.90618 0.99432 1.07467 1.07467 0.980966 0.848855 1.04461 0.980966 0.919422 0.919422 1.00681 0.8063 0.912892 1.12037 1.12037 1.04461 1.07467 0.94865 1.04461 1.06245 1.00681 1.14226 1.04461 1.11547 1.11547 1.10185 1.10185 0.919422 1.12037 0.919422 0.848855 0.94865 1.00681 1.00681 1.12037 0.919422 1.12037 1.00681 1.00681 1.11547 1.00681 0.980966 1.06245 1.11547 1.04461 1.06245 1.07467 0.980966 1.07467 0.90618 0.980966 0.789941 0.94865 0.94865 0.8063 0.848855 0.94865 0.90618 1.11547 0.912892 1.12037 1.04461 0.94865 0.90618 1.04461 0.980966 1.07467 1.10185 1.07467 1.06245 0.980966 1.10185 0.94865 1.12037 1.07467 1.07467 1.04461 1.04461 0.980966 1.10185 1.04461 1.06245 1.11547 1.10185 0.912892 0.919422 1.07467 0.90618 0.848855 1.10185 1.04461 0.919422 1.10185 1.10185 0.980966 0.919422 1.10185 0.94865 0.919422 1.11547 0.94865 1.00681 0.90618 0.763876 1.07467 1.07467 1.10185 0.848855 0.980966 1.14226 0.919422 1.12037 1.10185 0.99432 1.06245 1.14226 1.11547 0.99432 1.06245 0.919422 0.94865 1.14226 1.14226 0.912892 0.919422 0.919422 1.11547 0.8063 1.12037 1.04461 1.14226 1.11547 1.00681 0.848855 0.94865 1.11547 1.00681 1.06245 1.10185 1.04461 1.14226 0.912892 1.12037 1.14226 1.10185 1.00681 0.912892 1.14226 0.94865 0.90618 0.980966 1.07467 1.00681 1.12037 1.06245 0.848855 0.919422 1.10185 1.12037 1.06245 0.912892 1.00681 1.11547 1.07467 0.94865 1.06245 0.90618 0.919422 1.12037 1.07467 0.912892 0.848855 1.10185 1.11547 0.980966 1.10185 1.11547 0.789941 1.10185 0.980966 0.919422 0.848855 1.07467 1.14226 1.07467 1.00681 1.04461 1.14226 0.8063 1.11547 0.919422 0.980966 0.90618 0.980966 1.04461 0.919422 0.90618 0.919422 1.00681 0.94865 0.99432 1.06245 0.8063 0.980966 0.99432 1.12037 0.90618 1.12037 0.919422 1.12037 1.00681 0.789941 1.00681 0.90618 0.8063 1.14226 1.12037 1.07467 0.980966 0.94865 0.919422 1.14226 0.980966 1.06245 0.789941 1.11547 0.980966 1.12037 1.00681 1.10185 0.90618 1.04461 1.12037 0.919422 1.10185 1.07467 1.10185 1.11547 1.06245 1.00681 0.912892 0.919422 1.04461 0.90618 1.14226 0.912892 1.07467 1.04461 0.90618 0.657465 1.04461 1.11547 1.00681 1.11547 1.06245 1.04461 0.94865 1.00681 0.90618 0.980966 1.00681 0.789941 1.00681 1.11547 1.11547 0.919422 1.06245 1.06245 1.10185 1.12037 1.12037 1.04461 1.12037 1.07467 1.07467 
</DataArray>
<DataArray type="Float64" Name="cell variable 5" format="ascii">
0.00797274 0.00878122 0.0157727 0.00858434 0.0116913 0.0109898 0.00797274 0.0109898 0.00797274 0.0120314 0.00760594 0.00908091 0.0100133 0.00908091 0.0118572 0.0116913 0.00858434 0.00816951 0.00816951 0.0109898 0.0116913 0.0100133 0.00878122 0.00976872 0.00858434 0.00816951 0.00976872 0.00760594 0.0100133 0.0118572 0.0102849 0.0100133 0.0102849 0.00908091 0.00797274 0.00790366 0.00858434 0.0118572 0.0118572 0.016849 0.0118572 0.00797274 0.0100133 0.0116913 0.0116913 0.00816951 0.00797274 0.00790366 0.0102849 0.0226112 0.00797274 0.00797274 0.00790366 0.00908091 0.00797274 0.00858434 0.00790366 0.0120314 0.00797274 0.0118572 0.00816951 0.00797274 0.00908091 0.00858434 0.00908091 0.0116913 0.00790366 0.00976872 0.00908091 0.00976872 0.00790366 0.00790366 0.00976872 0.0120314 0.016849 0.00908091 0.00760594 0.0109898 0.00976872 0.00797274 0.00908091 0.0116913 0.00797274 0.0136882 0.00797274 0.00797274 0.00908091 0.00816951 0.00760594 0.00858434 0.0109898 0.0102849 0.0151488 0.0226112 0.0102849 0.0102849 0.00976872 0.0116913 0.00790366 0.00797274 0.00908091 0.00908091 0.0116913 0.0109898 0.0116913 0.0116913 0.0100133 0.00790366 0.0244954 0.0118572 0.016849 0.00976872 0.00816951 0.0136882 0.00976872 0.00760594 0.00760594 0.00858434 0.00797274 0.0157727 0.00760594 0.00858434 0.00976872 0.0109898 0.00878122 0.0226112 0.0157727 0.0151488 0.0100133 0.00908091 0.00797274 0.00797274 0.00976872 0.00858434 0.00878122 0.00878122 0.00878122 0.0100133 0.00908091 0.0116913 0.0120314 0.00976872 0.00790366 0.016849 0.0120314 0.0100133 0.00858434 0.00858434 0.0102849 0.0136882 0.00908091 0.0102849 0.0116913 0.0116913 0.00976872 0.0151488 0.0118572 0.00790366 0.00790366 0.00908091 0.00858434 0.0109898 0.00908091 0.00878122 0.00976872 0.00760594 0.00908091 0.00797274 0.00797274 0.00816951 0.00816951 0.0116913 0.00790366 0.0116913 0.0136882 0.0109898 0.00976872 0.00976872 0.00790366 0.0116913 0.00790366 0.00976872 0.00976872 0.00797274 0.00976872 0.0102849 0.00878122 0.00797274 0.00908091 0.00878122 0.00858434 0.0102849 0.00858434 0.0120314 0.0102849 0.0157727 0.0109898 0.0109898 0.0151488 0.0136882 0.0109898 0.0120314 0.00797274 0.0118572 0.00790366 0.00908091 0.0109898 0.0120314 0.00908091 0.0102849 0.00858434 0.00816951 0.00858434 0.00878122 0.0102849 0.00816951 0.0109898 0.00790366 0.00858434 0.00858434 0.00908091 0.00908091 0.0102849 0.00816951 0.00908091 0.00878122 0.00797274 0.00816951 0.0118572 0.0116913 0.00858434 0.0120314 0.0136882 0.00816951 0.00908091 0.0116913 0.00816951 0.00816951 0.0102849 0.0116913 0.00816951 0.0109898 0.0116913 0.00797274 0.0109898 0.00976872 0.0120314 0.016849 0.00858434 0.00858434 0.00816951 0.0136882 0.0102849 0.00760594 0.0116913 0.00790366 0.00816951 0.0100133 0.00878122 0.00760594 0.00797274 0.0100133 0.00878122 0.0116913 0.0109898 0.00760594 0.00760594 0.0118572 0.0116913 0.0116913 0.00797274 0.0151488 0.00790366 0.00908091 0.00760594 0.00797274 0.00976872 0.0136882 0.0109898 0.00797274 0.00976872 0.00878122 0.00816951 0.00908091 0.00760594 0.0118572 0.00790366 0.00760594 0.00816951 0.00976872 0.0118572 0.00760594 0.0109898 0.0120314 0.0102849 0.00858434 0.00976872 0.00790366 0.00878122 0.0136882 0.0116913 0.00816951 0.00790366 0.00878122 0.0118572 0.00976872 0.00797274 0.00858434 0.0109898 0.00878122 0.0120314 0.0116913 0.00790366 0.00858434 0.0118572 0.0136882 0.00816951 0.00797274 0.0102849 0.00816951 0.00797274 0.0157727 0.00816951 0.0102849 0.0116913 0.0136882 0.00858434 0.00760594 0.00858434 0.00976872 0.00908091 0.00760594 0.0151488 0.00797274 0.0116913 0.0102849 0.0120314 0.0102849 0.00908091 0.0116913 0.0120314 0.0116913 0.00976872 0.0109898 0.0100133 0.00878122 0.0151488 0.0102849 0.0100133 0.00790366 0.0120314 0.00790366 0.0116913 0.00790366 0.00976872 0.0157727 0.00976872 0.0120314 0.0151488 0.00760594 0.00790366 0.00858434 0.0102849 0.0109898 0.0116913 0.00760594 0.0102849 0.00878122 0.0157727 0.00797274 0.0102849 0.00790366 0.00976872 0.00816951 0.0120314 0.00908091 0.00790366 0.0116913 0.00816951 0.00858434 0.00816951 0.00797274 0.00878122 0.00976872 0.0118572 0.0116913 0.00908091 0.0120314 0.00760594 0.0118572 0.00858434 0.00908091 0.0120314 0.0226112 0.00908091 0.00797274 0.00976872 0.00797274 0.00878122 0.00908091 0.0109898 0.00976872 0.0120314 0.0102849 0.00976872 0.0157727 0.00976872 0.00797274 0.00797274 0.0116913 0.00878122 0.00878122 0.00816951 0.00790366 0.00790366 0.00908091 0.00790366 0.00858434 0.00858434 
</DataArray>
<DataArray type="Float64" Name="cell variable 6" format="ascii">
4.32387e-06 5.74138e-06 3.156e-05 5.3719e-06 1.32528e-05 1.10661e-05 4.32387e-06 1.10661e-05 4.32387e-06 1.4406e-05 3.76475e-06 6.33494e-06 8.43313e-06 6.33494e-06 1.38076e-05 1.32528e-05 5.3719e-06 4.64493e-06 4.64493e-06 1.10661e-05 1.32528e-05 8.43313e-06 5.74138e-06 7.8448e-06 5.3719e-06 4.64493e-06 7.8448e-06 3.76475e-06 8.43313e-06 1.38076e-05 9.11938e-06 8.43313e-06 9.11938e-06 6.33494e-06 4.32387e-06 4.21468e-06 5.3719e-06 1.38076e-05 1.38076e-05 3.81646e-05 1.38076e-05 4.32387e-06 8.43313e-06 1.32528e-05 1.32528e-05 4.64493e-06 4.32387e-06 4.21468e-06 9.11938e-06 8.84138e-05 4.32387e-06 4.32387e-06 4.21468e-06 6.33494e-06 4.32387e-06 5.3719e-06 4.21468e-06 1.4406e-05 4.32387e-06 1.38076e-05 4.64493e-06 4.32387e-06 6.33494e-06 5.3719e-06 6.33494e-06 1.32528e-05 4.21468e-06 7.8448e-06 6.33494e-06 7.8448e-06 4.21468e-06 4.21468e-06 7.8448e-06 1.4406e-05 3.81646e-05 6.33494e-06 3.76475e-06 1.10661e-05 7.8448e-06 4.32387e-06 6.33494e-06 1.32528e-05 4.32387e-06 2.09522e-05 4.32387e-06 4.32387e-06 6.33494e-06 4.64493e-06 3.76475e-06 5.3719e-06 1.10661e-05 9.11938e-06 2.80904e-05 8.84138e-05 9.11938e-06 9.11938e-06 7.8448e-06 1.32528e-05 4.21468e-06 4.32387e-06 6.33494e-06 6.33494e-06 1.32528e-05 1.10661e-05 1.32528e-05 1.32528e-05 8.43313e-06 4.21468e-06 0.000110922 1.38076e-05 3.81646e-05 7.8448e-06 4.64493e-06 2.09522e-05 7.8448e-06 3.76475e-06 3.76475e-06 5.3719e-06 4.32387e-06 3.156e-05 3.76475e-06 5.3719e-06 7.8448e-06 1.10661e-05 5.74138e-06 8.84138e-05 3.156e-05 2.80904e-05 8.43313e-06 6.33494e-06 4.32387e-06 4.32387e-06 7.8448e-06 5.3719e-06 5.74138e-06 5.74138e-06 5.74138e-06 8.43313e-06 6.33494e-06 1.32528e-05 1.4406e-05 7.8448e-06 4.21468e-06 3.81646e-05 1.4406e-05 8.43313e-06 5.3719e-06 5.3719e-06 9.11938e-06 2.09522e-05 6.33494e-06 9.11938e-06 1.32528e-05 1.32528e-05 7.8448e-06 2.80904e-05 1.38076e-05 4.21468e-06 4.21468e-06 6.33494e-06 5.3719e-06 1.10661e-05 6.33494e-06 5.74138e-06 7.8448e-06 3.76475e-06 6.33494e-06 4.32387e-06 4.32387e-06 4.64493e-06 4.64493e-06 1.32528e-05 4.21468e-06 1.32528e-05 2.09522e-05 1.10661e-05 7.8448e-06 7.8448e-06 4.21468e-06 1.32528e-05 4.21468e-06 7.8448e-06 7.8448e-06 4.32387e-06 7.8448e-06 9.11938e-06 5.74138e-06 4.32387e-06 6.33494e-06 5.74138e-06 5.3719e-06 9.11938e-06 5.3719e-06 1.4406e-05 9.11938e-06 3.156e-05 1.10661e-05 1.10661e-05 2.80904e-05 2.09522e-05 1.10661e-05 1.4406e-05 4.32387e-06 1.38076e-05 4.21468e-06 6.33494e-06 1.10661e-05 1.4406e-05 6.33494e-06 9.11938e-06 5.3719e-06 4.64493e-06 5.3719e-06 5.74138e-06 9.11938e-06 4.64493e-06 1.10661e-05 4.21468e-06 5.3719e-06 5.3719e-06 6.33494e-06 6.33494e-06 9.11938e-06 4.64493e-06 6.33494e-06 5.74138e-06 4.32387e-06 4.64493e-06 1.38076e-05 1.32528e-05 5.3719e-06 1.4406e-05 2.09522e-05 4.64493e-06 6.33494e-06 1.32528e-05 4.64493e-06 4.64493e-06 9.11938e-06 1.32528e-05 4.64493e-06 1.10661e-05 1.32528e-05 4.32387e-06 1.10661e-05 7.8448e-06 1.4406e-05 3.81646e-05 5.3719e-06 5.3719e-06 4.64493e-06 2.09522e-05 9.11938e-06 3.76475e-06 1.32528e-05 4.21468e-06 4.64493e-06 8.43313e-06 5.74138e-06 3.76475e-06 4.32387e-06 8.43313e-06 5.74138e-06 1.32528e-05 1.10661e-05 3.76475e-06 3.76475e-06 1.38076e-05 1.32528e-05 1.32528e-05 4.32387e-06 2.80904e-05 4.21468e-06 6.33494e-06 3.76475e-06 4.32387e-06 7.8448e-06 2.09522e-05 1.10661e-05 4.32387e-06 7.8448e-06 5.74138e-06 4.64493e-06 6.33494e-06 3.76475e-06 1.38076e-05 4.21468e-06 3.76475e-06 4.64493e-06 7.8448e-06 1.38076e-05 3.76475e-06 1.10661e-05 1.4406e-05 9.11938e-06 5.3719e-06 7.8448e-06 4.21468e-06 5.74138e-06 2.09522e-05 1.32528e-05 4.64493e-06 4.21468e-06 5.74138e-06 1.38076e-05 7.8448e-06 4.32387e-06 5.3719e-06 1.10661e-05 5.74138e-06 1.4406e-05 1.32528e-05 4.21468e-06 5.3719e-06 1.38076e-05 2.09522e-05 4.64493e-06 4.32387e-06 9.11938e-06 4.64493e-06 4.32387e-06 3.156e-05 4.64493e-06 9.11938e-06 1.32528e-05 2.09522e-05 5.3719e-06 3.76475e-06 5.3719e-06 7.8448e-06 6.33494e-06 3.76475e-06 2.80904e-05 4.32387e-06 1.32528e-05 9.11938e-06 1.4406e-05 9.11938e-06 6.33494e-06 1.32528e-05 1.4406e-05 1.32528e-05 7.8448e-06 1.10661e-05 8.43313e-06 5.74138e-06 2.80904e-05 9.11938e-06 8.43313e-06 4.21468e-06 1.4406e-05 4.21468e-06 1.32528e-05 4.21468e-06 7.8448e-06 3.156e-05 7.8448e-06 1.4406e-05 2.80904e-05 3.76475e-06 4.21468e-06 5.3719e-06 9.11938e-06 1.10661e-05 1.32528e-05 3.76475e-06 9.11938e-06 5.74138e-06 3.156e-05 4.32387e-06 9.11938e-06 4.21468e-06 7.8448e-06 4.64493e-06 1.4406e-05 6.33494e-06 4.21468e-06 1.32528e-05 4.64493e-06 5.3719e-06 4.64493e-06 4.32387e-06 5.74138e-06 7.8448e-06 1.38076e-05 1.32528e-05 6.33494e-06 1.4406e-05 3.76475e-06 1.38076e-05 5.3719e-06 6.33494e-06 1.4406e-05 8.84138e-05 6.33494e-06 4.32387e-06 7.8448e-06 4.32387e-06 5.74138e-06 6.33494e-06 1.10661e-05 7.8448e-06 1.4406e-05 9.11938e-06 7.8448e-06 3.156e-05 7.8448e-06 4.32387e-06 4.32387e-06 1.32528e-05 5.74138e-06 5.74138e-06 4.64493e-06 4.21468e-06 4.21468e-06 6.33494e-06 4.21468e-06 5.3719e-06 5.3719e-06 
</DataArray>
<DataArray type="Float64" Name="cell variable 7" format="ascii">