<VTKFile type="UnstructuredGrid" version="0.1">
<UnstructuredGrid>
<Piece  NumberOfPoints="    2406" NumberOfCells="     400">
<Points>
<DataArray type="Float64" NumberOfComponents="3" format="ascii">
-1.24397 -6.8448 0.0
-2.36383 -8.82022 0.0
1.31359 -18.9613 0.0
2.59885 -18.6473 0.0
2.68832 -18.4273 0.0
0.511775 -10.4482 0.0
-0.466032 -6.77323 0.0
-0.979412 -6.72798 0.0
22.7137 21.0192 0.0
22.9349 20.6382 0.0
24.9527 17.1916 0.0
25.7087 17.2065 0.0
31.3162 19.2076 0.0
31.7456 20.6273 0.0
45.917 -33.0285 0.0
42.7665 -35.3617 0.0
48.1586 -38.4577 0.0
49.0693 -38.334 0.0
49.9027 -37.5792 0.0
50.3218 -35.6596 0.0
49.5646 -31.9488 0.0
-6.70938 30.4801 0.0
-9.20405 27.3714 0.0
-0.844451 28.3333 0.0
-0.495007 28.7034 0.0
-1.16777 30.1928 0.0
-3.94362 32.1885 0.0
-27.8972 -38.6269 0.0
-27.0352 -35.6512 0.0
-27.1209 -34.6293 0.0
-28.1162 -33.5487 0.0
-32.4806 -32.9545 0.0
-32.9978 -33.9687 0.0
-33.3177 -39.2183 0.0
-31.2495 -39.0582 0.0
21.9549 -35.5414 0.0
16.5168 -36.9354 0.0
15.1221 -41.0867 0.0
17.5931 -40.1727 0.0
22.9295 -35.9554 0.0
8.63433 -1.76142 0.0
8.28556 -4.11965 0.0
9.0753 -5.30513 0.0
15.6705 -2.60356 0.0
15.7387 -2.37853 0.0
15.7795 -1.65771 0.0
27.2396 -30.6233 0.0
25.1099 -28.056 0.0
20.5433 -30.6987 0.0
20.2737 -32.7228 0.0
22.4735 -34.9187 0.0
23.448 -35.3328 0.0
24.2349 -35.3468 0.0
53.1 8.83804 0.0
53.1441 8.38264 0.0
59.2547 11.4637 0.0
59.2194 15.3498 0.0
58.978 15.6118 0.0
55.6069 16.003 0.0
-46.1667 4.50639 0.0
-45.4706 6.1882 0.0
-46.4306 8.4567 0.0
-48.5461 9.55789 0.0
-50.7418 9.72588 0.0
-51.2756 9.12299 0.0
-51.5943 3.94128 0.0
5.2066 26.4304 0.0
5.54412 26.0527 0.0
6.62288 25.1178 0.0
13.7212 23.6193 0.0
13.9868 24.0754 0.0
14.8578 26.4054 0.0
13.5807 27.4422 0.0
5.28926 27.6998 0.0
0.0676567 -25.0666 0.0
-0.383072 -26.4741 0.0
-0.0292558 -30.8258 0.0
0.768644 -31.1449 0.0
6.49583 -29.1412 0.0
7.0511 -27.2861 0.0
4.05415 -26.1671 0.0
35.7718 43.8677 0.0
34.9641 45.7419 0.0
33.8451 47.3162 0.0
26.3213 51.2382 0.0
26.0224 50.9553 0.0
26.3199 49.471 0.0
35.3462 42.803 0.0
-20.0436 -23.9925 0.0
-17.4007 -24.2106 0.0
-15.6659 -19.4685 0.0
-20.4065 -17.9464 0.0
-21.26 -20.0986 0.0
-22.066 -22.4079 0.0
5.97049 61.5082 0.0
5.4121 61.1683 0.0
0.971585 56.0431 0.0
1.03553 55.9988 0.0
4.14598 56.9912 0.0
9.18636 60.3321 0.0
10.3978 61.3657 0.0
-40.7271 -5.02424 0.0
-40.7371 -5.06185 0.0
-39.8735 -7.89502 0.0
-35.5746 -11.4293 0.0
-34.2346 -12.5293 0.0
-33.5266 -12.3621 0.0
-32.622 -10.1312 0.0
-32.9078 -9.24781 0.0
-10.3488 26.429 0.0
-14.24 25.0437 0.0
-14.2832 19.2513 0.0
-10.3983 22.448 0.0
-10.0624 22.9243 0.0
27.4074 9.90713 0.0
25.5159 9.10967 0.0
26.1077 6.03496 0.0
26.9303 5.5771 0.0
32.5201 5.99406 0.0
35.9277 6.65312 0.0
35.7889 7.03087 0.0
15.0957 -54.7412 0.0
16.6528 -54.7548 0.0
17.6414 -53.2385 0.0
18.3532 -50.7974 0.0
18.1933 -49.6713 0.0
16.8987 -47.5586 0.0
14.8616 -47.0885 0.0
14.7204 -47.1982 0.0
50.7433 -15.6051 0.0
50.6593 -16.7508 0.0
58.6233 -18.0731 0.0
59.3858 -17.6734 0.0
59.987 -14.4528 0.0
57.1536 -13.0044 0.0
54.463 -13.8982 0.0
-57.63 -4.12997 0.0
-58.1913 0.446413 0.0
-62.2531 -0.41117 0.0
-61.59 -4.0029 0.0
-60.5405 -5.51022 0.0
-39.2094 29.8896 0.0
-38.5834 27.6298 0.0
-35.5483 27.8861 0.0
-34.1629 28.16 0.0
-33.6519 29.3352 0.0
-32.773 32.8221 0.0
-33.4029 33.6517 0.0
-39.2434 31.7992 0.0
-32.684 35.8561 0.0
-32.7471 34.4432 0.0
-32.1173 33.6137 0.0
-28.6162 36.92 0.0
-26.0617 42.9495 0.0
-26.3107 43.3111 0.0
-27.5449 43.1057 0.0
-20.5798 9.3446 0.0
-17.2721 12.1887 0.0
-17.5728 15.7843 0.0
-18.4804 16.4504 0.0
-24.1089 14.9003 0.0
-9.36505 27.0219 0.0
-9.725 26.7004 0.0
-9.4386 23.1957 0.0
-2.66261 25.8064 0.0
-2.24845 26.1456 0.0
-1.00546 27.9838 0.0
5.46039 49.7505 0.0
7.0965 48.9523 0.0
11.7828 51.7149 0.0
6.50148 52.9483 0.0
2.79289 53.3889 0.0
-1.45081 -64.981 0.0
-0.248968 -64.993 0.0
0.460887 -59.6867 0.0
0.384872 -55.515 0.0
0.0161586 -55.3531 0.0
-4.33638 -57.4164 0.0
4.2666 17.9047 0.0
3.88331 17.9396 0.0
0.377091 17.5043 0.0
-1.81799 11.1706 0.0
-2.18745 9.99988 0.0
2.41712 12.6883 0.0
-15.0531 38.5928 0.0
-18.5769 39.3911 0.0
-23.7712 31.1312 0.0
-22.3907 31.6116 0.0
-14.9389 37.9714 0.0
-41.6423 -43.3498 0.0
-39.3146 -46.2173 0.0
-36.453 -47.5776 0.0
-34.0711 -45.4989 0.0
-35.4407 -41.7872 0.0
-36.6688 -41.0168 0.0
-37.6477 -40.9722 0.0
13.7476 -61.1651 0.0
16.5037 -56.0552 0.0
16.2826 -55.4251 0.0
14.7255 -55.4116 0.0
10.5288 -55.7049 0.0
7.80457 -57.0665 0.0
-32.9973 29.1919 0.0
-33.5083 28.0167 0.0
-31.5335 26.5111 0.0
-27.3416 27.5776 0.0
-26.4306 29.4058 0.0
-26.4606 31.8997 0.0
-26.8522 32.1568 0.0
14.8021 36.8729 0.0
18.3548 34.9617 0.0
19.1151 41.5523 0.0
16.068 42.294 0.0
15.4046 42.1421 0.0
14.2723 39.9445 0.0
3.85969 -36.583 0.0
2.5412 -34.5764 0.0
0.516052 -31.7937 0.0
-0.281848 -31.4746 0.0
-1.32984 -32.007 0.0
-2.30567 -34.0934 0.0
-2.38371 -36.6062 0.0
18.554 -23.2027 0.0
18.6905 -23.2584 0.0
31.9835 -18.155 0.0
32.2169 -17.2538 0.0
31.6757 -16.7206 0.0
26.5134 -18.1973 0.0
19.7322 -20.4565 0.0
19.4862 -20.6059 0.0
17.6073 -22.3027 0.0
-45.0357 -7.05405 0.0
-43.6012 -6.11443 0.0
-41.6784 -4.59801 0.0
-41.6683 -4.5604 0.0
-41.6855 -4.20513 0.0
-46.816 -2.02712 0.0
-49.5733 -2.9372 0.0
-49.8952 -3.71703 0.0
-43.4101 -18.3698 0.0
-43.5164 -18.5512 0.0
-42.4575 -22.7798 0.0
-40.9063 -28.0588 0.0
-39.4481 -27.606 0.0
-38.8439 -23.7422 0.0
-46.1058 -26.3996 0.0
-47.6166 -24.4478 0.0
-53.8056 -25.0256 0.0
-50.175 -29.3302 0.0
-40.4409 34.678 0.0
-40.2072 34.5874 0.0
-38.6619 36.8979 0.0
-38.1506 42.8737 0.0
-38.8516 46.6919 0.0
-38.9683 46.727 0.0
-39.6451 46.7663 0.0
-12.8513 41.3523 0.0
-14.2156 38.9262 0.0
-14.1014 38.3047 0.0
-13.8097 37.9789 0.0
-9.05338 37.5379 0.0
-7.81525 38.0766 0.0
-6.97709 40.2526 0.0
-13.8152 -52.3134 0.0
-17.8767 -53.1227 0.0
-18.31 -53.359 0.0
-18.2345 -54.7409 0.0
-15.2069 -61.2915 0.0
-14.0947 -61.4395 0.0
49.2993 13.1699 0.0
48.8544 15.4754 0.0
45.1116 16.9016 0.0
44.9433 15.5093 0.0
45.328 13.4863 0.0
45.9399 10.4207 0.0
49.6559 13.4626 0.0
50.0064 13.1001 0.0
53.3111 17.3733 0.0
48.3394 20.357 0.0
49.2111 15.7681 0.0
-38.0201 -22.9256 0.0
-38.428 -23.9829 0.0
-39.0322 -27.8467 0.0
-36.5133 -28.7574 0.0
-33.6097 -26.2505 0.0
4.98572 -52.2383 0.0
6.65566 -49.8911 0.0
6.79944 -49.5393 0.0
3.93305 -41.0607 0.0
3.07692 -41.2654 0.0
37.1683 4.69267 0.0
35.756 2.55607 0.0
32.2513 -6.78747 0.0
32.8156 -6.53737 0.0
37.0288 -4.3978 0.0
38.3708 4.18887 0.0
20.2964 -13.9006 0.0
17.8642 -15.2004 0.0
19.0508 -20.2554 0.0
19.2968 -20.106 0.0
23.7044 -15.0482 0.0
21.3489 -14.0843 0.0
46.1268 10.0251 0.0
45.9133 7.98497 0.0
52.0258 8.92182 0.0
49.8366 12.4118 0.0
49.4861 12.7743 0.0
11.9152 34.1497 0.0
13.2665 34.8091 0.0
14.2663 36.635 0.0
13.7365 39.7067 0.0
11.0665 38.8734 0.0
7.15034 35.1418 0.0
30.7334 -29.0616 0.0
27.7471 -30.7703 0.0
24.7424 -35.4939 0.0
25.7464 -36.329 0.0
29.4539 -36.0803 0.0
32.1632 -33.0385 0.0
0.810429 -10.6555 0.0
2.98698 -18.6346 0.0
4.32815 -17.3938 0.0
5.14362 -14.1438 0.0
-51.9126 13.5818 0.0
-53.2021 14.2155 0.0
-58.8398 10.1148 0.0
-56.2133 9.65316 0.0
-51.8149 9.58806 0.0
-51.2811 10.191 0.0
-25.2321 44.9147 0.0
-25.4879 44.1896 0.0
-25.2389 43.828 0.0
-23.7624 43.6474 0.0
-21.6931 43.4354 0.0
-20.4863 44.7085 0.0
-18.6962 48.4977 0.0
-17.551 53.5329 0.0
5.06481 -60.7396 0.0
5.43634 -56.939 0.0
4.12959 -55.4591 0.0
2.60083 -55.2228 0.0
0.833324 -55.3172 0.0
0.90934 -59.4889 0.0
7.02609 -17.0797 0.0
12.6828 -16.0847 0.0
11.5338 -12.2833 0.0
11.1018 -11.5559 0.0
10.3766 -11.336 0.0
-0.277806 27.8885 0.0
-1.5208 26.0503 0.0
-0.198732 19.2907 0.0
-0.126992 19.2986 0.0
4.29395 26.3329 0.0
4.37661 27.6023 0.0
4.29366 27.7526 0.0
3.44865 28.4182 0.0
0.0716378 28.2586 0.0
35.4171 37.4225 0.0
35.2106 36.3209 0.0
41.3803 30.0023 0.0
42.6694 29.5166 0.0
42.4567 30.8627 0.0
39.0883 37.3474 0.0
36.7887 38.8055 0.0
-57.5867 -19.1874 0.0
-56.585 -20.0095 0.0
-54.4182 -11.9346 0.0
-57.9647 -13.2487 0.0
11.9958 -12.0854 0.0
13.1448 -15.8868 0.0
13.8817 -16.4859 0.0
15.3875 -15.4114 0.0
17.2765 -10.8938 0.0
18.0905 -8.50897 0.0
40.7522 -5.40745 0.0
41.2744 -4.18164 0.0
40.9337 4.78083 0.0
38.7498 4.25338 0.0
37.4078 -4.33328 0.0
-41.3012 34.9835 0.0
-40.6029 34.6899 0.0
-39.8071 46.7782 0.0
-40.1791 46.7382 0.0
-41.2919 46.2522 0.0
-41.9702 36.2795 0.0
23.9336 -43.2404 0.0
22.8501 -43.6885 0.0
23.2881 -48.4049 0.0
28.5019 -47.7121 0.0
28.5381 -46.9627 0.0
28.5124 -46.6405 0.0
-11.7348 -26.881 0.0
-11.6735 -28.1682 0.0
-3.03517 -33.5513 0.0
-2.05933 -31.4649 0.0
-8.65588 -25.7206 0.0
-9.72435 -25.0111 0.0
-18.3713 28.8494 0.0
-20.3125 24.584 0.0
-20.1322 24.2187 0.0
-18.4092 22.9929 0.0
-15.2109 25.4368 0.0
-13.0023 30.9273 0.0
-17.5566 29.712 0.0
49.5699 -22.7463 0.0
49.4307 -22.128 0.0
39.7871 -21.585 0.0
38.5131 -21.9191 0.0
37.0056 -22.9655 0.0
37.0239 -23.9375 0.0
49.3694 -23.0598 0.0
-52.5706 -4.74854 0.0
-51.7994 -5.06916 0.0
-50.6154 -3.34375 0.0
-50.2934 -2.56392 0.0
-52.4634 2.34321 0.0
-54.6954 3.03199 0.0
-56.3342 3.18269 0.0
-3.47756 0.0765238 0.0
-4.54137 1.5215 0.0
-8.36305 -0.892419 0.0
-3.59557 -4.68515 0.0
-1.71691 -5.76632 0.0
-1.45235 -5.6495 0.0
45.1153 21.4755 0.0
45.9333 23.7946 0.0
45.2214 26.743 0.0
43.9606 27.1865 0.0
39.928 23.4794 0.0
39.6586 22.8608 0.0
39.9601 22.0363 0.0
-11.5981 -28.6272 0.0
-11.7236 -29.0451 0.0
-5.34892 -37.3685 0.0
-3.68935 -38.2536 0.0
-3.03783 -36.5231 0.0
-2.95979 -34.0103 0.0
-30.2906 9.49096 0.0
-30.1809 8.02645 0.0
-24.7814 2.51393 0.0
-23.3965 3.44816 0.0
-22.5764 4.4927 0.0
-27.7883 -39.2053 0.0
-31.1406 -39.6366 0.0
-30.5298 -45.618 0.0
-27.4587 -43.0468 0.0
-27.1513 -42.5949 0.0
-18.8694 -2.25436 0.0
-15.3074 -2.01408 0.0
-16.9648 1.71931 0.0
-17.251 2.10425 0.0
-18.2254 2.67392 0.0
-21.6424 4.21096 0.0
-21.833 3.99924 0.0
-22.6531 2.95471 0.0
-31.3144 0.204141 0.0
-32.3743 3.49305 0.0
-36.9094 5.14378 0.0
-38.3893 5.13156 0.0
-39.1278 4.39982 0.0
-38.6845 1.70028 0.0
-21.5961 -30.9589 0.0
-20.5745 -27.9427 0.0
-20.4367 -24.5084 0.0
-22.4591 -22.9238 0.0
-24.0833 -23.1278 0.0
-26.394 -25.9119 0.0
17.3966 45.0092 0.0
19.2238 47.9506 0.0
[...]
<CellData Scalars="cell variable 4" Vectors="cell vector">
<DataArray type="Float64" NumberOfComponents="3" Name="cell vector" format="ascii">
0 0 0
0 0 0
0 0 0
0 0 0
0 0 0
0 0 0
0 0 0
0 0 0
0 0 0
0 0 0
0 0 0
0 0 0
0 0 0
0 0 0
0 0 0
0 0 0
0 0 0
0 0 0
0 0 0
0 0 0
0 0 0
0 0 0
0 0 0
0 0 0
0 0 0
0 0 0
0 0 0
0 0 0
0 0 0
0 0 0
0 0 0
0 0 0
0 0 0
0 0 0
0 0 0
0 0 0
0 0 0
0 0 0
0 0 0
0 0 0
0 0 0
0 0 0
0 0 0
0 0 0
0 0 0
0 0 0
0 0 0
0 0 0
0 0 0
0 0 0
0 0 0
0 0 0
0 0 0
0 0 0
0 0 0
0 0 0
0 0 0
0 0 0
0 0 0
0 0 0
0 0 0
0 0 0
0 0 0
0 0 0
0 0 0
0 0 0
0 0 0
0 0 0
0 0 0
0 0 0
0 0 0
0 0 0
0 0 0
0 0 0
0 0 0
0 0 0
0 0 0
0 0 0
0 0 0
0 0 0
0 0 0
0 0 0
0 0 0
0 0 0
0 0 0
0 0 0
0 0 0
0 0 0
0 0 0
0 0 0
0 0 0
0 0 0
0 0 0
0 0 0
0 0 0
0 0 0
0 0 0
0 0 0
0 0 0
0 0 0
0 0 0
0 0 0
0 0 0
0 0 0
0 0 0
0 0 0
0 0 0
0 0 0
0 0 0
0 0 0
0 0 0
0 0 0
0 0 0
0 0 0
0 0 0
0 0 0
0 0 0
0 0 0
0 0 0
0 0 0
0 0 0
0 0 0
0 0 0
0 0 0
0 0 0
0 0 0
0 0 0
0 0 0
0 0 0
0 0 0
0 0 0
0 0 0
0 0 0
0 0 0
0 0 0
0 0 0
0 0 0
0 0 0
0 0 0
0 0 0
0 0 0
0 0 0
0 0 0
0 0 0
0 0 0
0 0 0
0 0 0
0 0 0
0 0 0
0 0 0
0 0 0
0 0 0
0 0 0
0 0 0
0 0 0
0 0 0
0 0 0
0 0 0
0 0 0
0 0 0
0 0 0
0 0 0
0 0 0
0 0 0
0 0 0
0 0 0
0 0 0
0 0 0
0 0 0
0 0 0
0 0 0
0 0 0
0 0 0
0 0 0
0 0 0
0 0 0
0 0 0
0 0 0
0 0 0
0 0 0
0 0 0
0 0 0
0 0 0
0 0 0
0 0 0
0 0 0
0 0 0
0 0 0
0 0 0
0 0 0
0 0 0
0 0 0
0 0 0
0 0 0
0 0 0
0 0 0
0 0 0
0 0 0
0 0 0
0 0 0
0 0 0
0 0 0
0 0 0
0 0 0
0 0 0
0 0 0
0 0 0
0 0 0
0 0 0
0 0 0
0 0 0
0 0 0
0 0 0
0 0 0
0 0 0
0 0 0
0 0 0
0 0 0
0 0 0
0 0 0
0 0 0
0 0 0
0 0 0
0 0 0
0 0 0
0 0 0
0 0 0
0 0 0
0 0 0
0 0 0
0 0 0
0 0 0
0 0 0
0 0 0
0 0 0
0 0 0
0 0 0
0 0 0
0 0 0
0 0 0
0 0 0
0 0 0
0 0 0
0 0 0
0 0 0
0 0 0
0 0 0
0 0 0
0 0 0
0 0 0
0 0 0
0 0 0
0 0 0
0 0 0
0 0 0
0 0 0
0 0 0
0 0 0
0 0 0
0 0 0
0 0 0
0 0 0
0 0 0
0 0 0
0 0 0
0 0 0
0 0 0
0 0 0
0 0 0
0 0 0
0 0 0
0 0 0
0 0 0
0 0 0
0 0 0
0 0 0
0 0 0
0 0 0
0 0 0
0 0 0
0 0 0
0 0 0
0 0 0
0 0 0
0 0 0
0 0 0
0 0 0
0 0 0
0 0 0
0 0 0
0 0 0
0 0 0
0 0 0
0 0 0
0 0 0
0 0 0
0 0 0
0 0 0
0 0 0
0 0 0
0 0 0
0 0 0
0 0 0
0 0 0
0 0 0
0 0 0
0 0 0
0 0 0
0 0 0
0 0 0
0 0 0
0 0 0
0 0 0
0 0 0
0 0 0
0 0 0
0 0 0
0 0 0
0 0 0
0 0 0
0 0 0
0 0 0
0 0 0
0 0 0
0 0 0
0 0 0
0 0 0
0 0 0
0 0 0
0 0 0
0 0 0
0 0 0
0 0 0
0 0 0
0 0 0
0 0 0
0 0 0
0 0 0
0 0 0
0 0 0
0 0 0
0 0 0
0 0 0
0 0 0
0 0 0
0 0 0
0 0 0
0 0 0
0 0 0
0 0 0
0 0 0
0 0 0
0 0 0
0 0 0
0 0 0
0 0 0
0 0 0
0 0 0
0 0 0
0 0 0
0 0 0
0 0 0
0 0 0
0 0 0
0 0 0
0 0 0
0 0 0
0 0 0
0 0 0
0 0 0
0 0 0
0 0 0
0 0 0
0 0 0
0 0 0
0 0 0
0 0 0
0 0 0
0 0 0
0 0 0
0 0 0
0 0 0
0 0 0
0 0 0
0 0 0
0 0 0
0 0 0
0 0 0
0 0 0
0 0 0
0 0 0
0 0 0
0 0 0
0 0 0
0 0 0
0 0 0
0 0 0
0 0 0
0 0 0
0 0 0
</DataArray>
<DataArray type="Float64" Name="cell vector length" format="ascii">
0 0 0 0 0 0 0 0 0 0 0 0 0 0 0 0 0 0 0 0 0 0 0 0 0 0 0 0 0 0 0 0 0 0 0 0 0 0 0 0 0 0 0 0 0 0 0 0 0 0 0 0 0 0 0 0 0 0 0 0 0 0 0 0 0 0 0 0 0 0 0 0 0 0 0 0 0 0 0 0 0 0 0 0 0 0 0 0 0 0 0 0 0 0 0 0 0 0 0 0 0 0 0 0 0 0 0 0 0 0 0 0 0 0 0 0 0 0 0 0 0 0 0 0 0 0 0 0 0 0 0 0 0 0 0 0 0 0 0 0 0 0 0 0 0 0 0 0 0 0 0 0 0 0 0 0 0 0 0 0 0 0 0 0 0 0 0 0 0 0 0 0 0 0 0 0 0 0 0 0 0 0 0 0 0 0 0 0 0 0 0 0 0 0 0 0 0 0 0 0 0 0 0 0 0 0 0 0 0 0 0 0 0 0 0 0 0 0 0 0 0 0 0 0 0 0 0 0 0 0 0 0 0 0 0 0 0 0 0 0 0 0 0 0 0 0 0 0 0 0 0 0 0 0 0 0 0 0 0 0 0 0 0 0 0 0 0 0 0 0 0 0 0 0 0 0 0 0 0 0 0 0 0 0 0 0 0 0 0 0 0 0 0 0 0 0 0 0 0 0 0 0 0 0 0 0 0 0 0 0 0 0 0 0 0 0 0 0 0 0 0 0 0 0 0 0 0 0 0 0 0 0 0 0 0 0 0 0 0 0 0 0 0 0 0 0 0 0 0 0 0 0 0 0 0 0 0 0 0 0 0 0 0 0 0 0 0 0 0 0 0 0 0 0 0 0 0 0 0 0 0 0 0 0 0 0 0 0 0 0 0 0 0 0 0 0 0 0 0 0 
</DataArray>
<DataArray type="Float64" Name="cell variable 4" format="ascii">
1.11547 1.06245 0.657465 1.07467 0.631062 0.94865 1.11547 0.94865 0.736473 0.8063 1.14226 1.04461 0.790107 1.04461 0.626025 0.919422 1.07467 1.10185 0.789941 0.573608 0.542818 0.99432 0.99432 1.00681 1.07467 0.626025 0.789941 1.14226 0.99432 0.631062 0.789941 0.99432 0.980966 1.04461 1.11547 0.919422 0.919422 0.631062 0.673042 0.763876 0.66381 0.848855 0.848855 0.919422 0.789941 1.10185 1.11547 0.848855 0.980966 0.657465 1.11547 0.8063 0.763876 0.789941 1.11547 1.07467 1.06245 0.542818 1.11547 0.912892 0.673042 0.708918 1.04461 1.07467 0.912892 0.542818 1.12037 0.848855 1.04461 1.00681 0.631062 1.12037 1.00681 0.90618 0.626025 1.04461 1.14226 0.94865 0.90618 1.11547 0.573608 0.708918 1.11547 0.848855 1.11547 0.912892 1.04461 1.10185 1.14226 1.07467 0.790107 0.708918 0.99432 0.626025 0.980966 0.980966 0.763876 0.919422 1.12037 1.11547 1.04461 1.04461 0.919422 0.94865 0.919422 0.919422 0.99432 1.12037 0.573608 0.912892 0.763876 0.790107 0.763876 0.673042 0.912892 1.14226 0.789941 0.657465 1.11547 0.789941 0.626025 1.07467 1.00681 0.94865 0.673042 0.673042 0.66381 1.06245 0.99432 0.790107 0.66381 1.11547 1.00681 1.07467 0.626025 1.06245 0.631062 0.789941 1.04461 0.919422 0.790107 1.00681 1.12037 0.763876 0.542818 0.980966 0.66381 0.99432 0.980966 0.848855 1.04461 0.980966 0.919422 0.919422 1.00681 0.8063 0.912892 1.12037 0.542818 1.06245 1.07467 0.94865 1.04461 1.06245 1.00681 0.763876 0.657465 1.11547 1.11547 1.10185 1.10185 0.919422 1.12037 0.919422 0.848855 0.94865 1.00681 1.00681 0.66381 0.919422 1.12037 1.00681 1.00681 0.657465 1.00681 0.980966 0.763876 1.11547 0.673042 0.790107 1.07467 0.912892 1.07467 0.631062 0.980966 0.789941 0.94865 0.763876 0.8063 0.919422 0.790107 0.90618 0.919422 0.912892 1.12037 0.912892 0.763876 0.90618 0.763876 0.980966 1.07467 1.10185 0.631062 1.06245 0.980966 1.10185 0.980966 0.673042 0.573608 1.07467 1.04461 1.04461 0.790107 1.10185 0.657465 0.8063 0.573608 1.10185 0.912892 0.763876 1.07467 0.90618 0.848855 1.10185 1.04461 0.919422 1.10185 0.912892 0.8063 0.631062 0.99432 0.94865 0.919422 1.11547 0.919422 1.00681 0.90618 0.736473 0.919422 1.07467 1.10185 0.848855 0.626025 1.14226 0.912892 0.763876 1.10185 0.99432 1.06245 0.790107 1.11547 0.99432 1.06245 0.919422 0.626025 0.631062 1.14226 0.912892 0.912892 0.919422 1.11547 0.789941 0.919422 0.542818 1.14226 1.11547 0.94865 0.631062 0.94865 1.11547 0.626025 1.06245 0.8063 0.912892 0.789941 0.912892 0.631062 1.14226 1.10185 1.00681 0.912892 1.14226 0.94865 0.763876 0.790107 0.8063 0.66381 1.12037 0.66381 0.848855 0.912892 0.657465 1.12037 1.06245 0.912892 0.848855 0.657465 0.673042 0.94865 0.90618 0.90618 0.919422 1.12037 1.07467 0.912892 0.848855 1.10185 1.11547 0.980966 0.8063 0.631062 0.789941 0.789941 0.848855 0.763876 0.848855 0.789941 1.14226 1.07467 0.8063 1.04461 1.14226 0.912892 1.11547 0.790107 0.980966 0.90618 0.980966 1.04461 0.657465 0.90618 0.919422 1.00681 0.94865 0.99432 1.06245 0.8063 0.848855 0.99432 1.12037 0.657465 0.626025 0.919422 0.657465 1.00681 0.789941 1.00681 0.8063 0.8063 1.14226 1.12037 0.708918 0.657465 0.919422 0.919422 0.708918 0.848855 1.06245 0.789941 1.11547 0.980966 0.789941 1.00681 1.10185 0.90618 1.04461 1.12037 0.919422 0.673042 0.626025 0.66381 1.11547 1.06245 0.8063 0.631062 0.919422 0.626025 0.90618 1.14226 0.542818 0.626025 1.04461 0.90618 0.657465 0.657465 0.919422 0.8063 1.12037 1.06245 1.06245 
</DataArray>
<DataArray type="Float64" Name="cell variable 5" format="ascii">
0.00797274 0.00878122 0.0226112 0.00858434 0.0244954 0.0109898 0.00797274 0.0109898 0.0181031 0.0151488 0.00760594 0.00908091 0.0157662 0.00908091 0.0248813 0.0116913 0.00858434 0.00816951 0.0157727 0.0294962 0.0328244 0.0100133 0.0100133 0.00976872 0.00858434 0.0248813 0.0157727 0.00760594 0.0100133 0.0244954 0.0157727 0.0100133 0.0102849 0.00908091 0.00797274 0.0116913 0.0116913 0.0244954 0.021599 0.016849 0.0221905 0.0136882 0.0136882 0.0116913 0.0157727 0.00816951 0.00797274 0.0136882 0.0102849 0.0226112 0.00797274 0.0151488 0.016849 0.0157727 0.00797274 0.00858434 0.00878122 0.0328244 0.00797274 0.0118572 0.021599 0.0195097 0.00908091 0.00858434 0.0118572 0.0328244 0.00790366 0.0136882 0.00908091 0.00976872 0.0244954 0.00790366 0.00976872 0.0120314 0.0248813 0.00908091 0.00760594 0.0109898 0.0120314 0.00797274 0.0294962 0.0195097 0.00797274 0.0136882 0.00797274 0.0118572 0.00908091 0.00816951 0.00760594 0.00858434 0.0157662 0.0195097 0.0100133 0.0248813 0.0102849 0.0102849 0.016849 0.0116913 0.00790366 0.00797274 0.00908091 0.00908091 0.0116913 0.0109898 0.0116913 0.0116913 0.0100133 0.00790366 0.0294962 0.0118572 0.016849 0.0157662 0.016849 0.021599 0.0118572 0.00760594 0.0157727 0.0226112 0.00797274 0.0157727 0.0248813 0.00858434 0.00976872 0.0109898 0.021599 0.021599 0.0221905 0.00878122 0.0100133 0.0157662 0.0221905 0.00797274 0.00976872 0.00858434 0.0248813 0.00878122 0.0244954 0.0157727 0.00908091 0.0116913 0.0157662 0.00976872 0.00790366 0.016849 0.0328244 0.0102849 0.0221905 0.0100133 0.0102849 0.0136882 0.00908091 0.0102849 0.0116913 0.0116913 0.00976872 0.0151488 0.0118572 0.00790366 0.0328244 0.00878122 0.00858434 0.0109898 0.00908091 0.00878122 0.00976872 0.016849 0.0226112 0.00797274 0.00797274 0.00816951 0.00816951 0.0116913 0.00790366 0.0116913 0.0136882 0.0109898 0.00976872 0.00976872 0.0221905 0.0116913 0.00790366 0.00976872 0.00976872 0.0226112 0.00976872 0.0102849 0.016849 0.00797274 0.021599 0.0157662 0.00858434 0.0118572 0.00858434 0.0244954 0.0102849 0.0157727 0.0109898 0.016849 0.0151488 0.0116913 0.0157662 0.0120314 0.0116913 0.0118572 0.00790366 0.0118572 0.016849 0.0120314 0.016849 0.0102849 0.00858434 0.00816951 0.0244954 0.00878122 0.0102849 0.00816951 0.0102849 0.021599 0.0294962 0.00858434 0.00908091 0.00908091 0.0157662 0.00816951 0.0226112 0.0151488 0.0294962 0.00816951 0.0118572 0.016849 0.00858434 0.0120314 0.0136882 0.00816951 0.00908091 0.0116913 0.00816951 0.0118572 0.0151488 0.0244954 0.0100133 0.0109898 0.0116913 0.00797274 0.0116913 0.00976872 0.0120314 0.0181031 0.0116913 0.00858434 0.00816951 0.0136882 0.0248813 0.00760594 0.0118572 0.016849 0.00816951 0.0100133 0.00878122 0.0157662 0.00797274 0.0100133 0.00878122 0.0116913 0.0248813 0.0244954 0.00760594 0.0118572 0.0118572 0.0116913 0.00797274 0.0157727 0.0116913 0.0328244 0.00760594 0.00797274 0.0109898 0.0244954 0.0109898 0.00797274 0.0248813 0.00878122 0.0151488 0.0118572 0.0157727 0.0118572 0.0244954 0.00760594 0.00816951 0.00976872 0.0118572 0.00760594 0.0109898 0.016849 0.0157662 0.0151488 0.0221905 0.00790366 0.0221905 0.0136882 0.0118572 0.0226112 0.00790366 0.00878122 0.0118572 0.0136882 0.0226112 0.021599 0.0109898 0.0120314 0.0120314 0.0116913 0.00790366 0.00858434 0.0118572 0.0136882 0.00816951 0.00797274 0.0102849 0.0151488 0.0244954 0.0157727 0.0157727 0.0136882 0.016849 0.0136882 0.0157727 0.00760594 0.00858434 0.0151488 0.00908091 0.00760594 0.0118572 0.00797274 0.0157662 0.0102849 0.0120314 0.0102849 0.00908091 0.0226112 0.0120314 0.0116913 0.00976872 0.0109898 0.0100133 0.00878122 0.0151488 0.0136882 0.0100133 0.00790366 0.0226112 0.0248813 0.0116913 0.0226112 0.00976872 0.0157727 0.00976872 0.0151488 0.0151488 0.00760594 0.00790366 0.0195097 0.0226112 0.0116913 0.0116913 0.0195097 0.0136882 0.00878122 0.0157727 0.00797274 0.0102849 0.0157727 0.00976872 0.00816951 0.0120314 0.00908091 0.00790366 0.0116913 0.021599 0.0248813 0.0221905 0.00797274 0.00878122 0.0151488 0.0244954 0.0116913 0.0248813 0.0120314 0.00760594 0.0328244 0.0248813 0.00908091 0.0120314 0.0226112 0.0226112 0.0116913 0.0151488 0.00790366 0.00878122 0.00878122 
</DataArray>
<DataArray type="Float64" Name="cell variable 6" format="ascii">
4.32387e-06 5.74138e-06 8.84138e-05 5.3719e-06 0.000110922 1.10661e-05 4.32387e-06 1.10661e-05 4.69278e-05 2.80904e-05 3.76475e-06 6.33494e-06 3.15261e-05 6.33494e-06 0.000115922 1.32528e-05 5.3719e-06 4.64493e-06 3.156e-05 0.000187165 0.000251962 8.43313e-06 8.43313e-06 7.8448e-06 5.3719e-06 0.000115922 3.156e-05 3.76475e-06 8.43313e-06 0.000110922 3.156e-05 8.43313e-06 9.11938e-06 6.33494e-06 4.32387e-06 1.32528e-05 1.32528e-05 0.000110922 7.76673e-05 3.81646e-05 8.3838e-05 2.09522e-05 2.09522e-05 1.32528e-05 3.156e-05 4.64493e-06 4.32387e-06 2.09522e-05 9.11938e-06 8.84138e-05 4.32387e-06 2.80904e-05 3.81646e-05 3.156e-05 4.32387e-06 5.3719e-06 5.74138e-06 0.000251962 4.32387e-06 1.38076e-05 7.76673e-05 5.81379e-05 6.33494e-06 5.3719e-06 1.38076e-05 0.000251962 4.21468e-06 2.09522e-05 6.33494e-06 7.8448e-06 0.000110922 4.21468e-06 7.8448e-06 1.4406e-05 0.000115922 6.33494e-06 3.76475e-06 1.10661e-05 1.4406e-05 4.32387e-06 0.000187165 5.81379e-05 4.32387e-06 2.09522e-05 4.32387e-06 1.38076e-05 6.33494e-06 4.64493e-06 3.76475e-06 5.3719e-06 3.15261e-05 5.81379e-05 8.43313e-06 0.000115922 9.11938e-06 9.11938e-06 3.81646e-05 1.32528e-05 4.21468e-06 4.32387e-06 6.33494e-06 6.33494e-06 1.32528e-05 1.10661e-05 1.32528e-05 1.32528e-05 8.43313e-06 4.21468e-06 0.000187165 1.38076e-05 3.81646e-05 3.15261e-05 3.81646e-05 7.76673e-05 1.38076e-05 3.76475e-06 3.156e-05 8.84138e-05 4.32387e-06 3.156e-05 0.000115922 5.3719e-06 7.8448e-06 1.10661e-05 7.76673e-05 7.76673e-05 8.3838e-05 5.74138e-06 8.43313e-06 3.15261e-05 8.3838e-05 4.32387e-06 7.8448e-06 5.3719e-06 0.000115922 5.74138e-06 0.000110922 3.156e-05 6.33494e-06 1.32528e-05 3.15261e-05 7.8448e-06 4.21468e-06 3.81646e-05 0.000251962 9.11938e-06 8.3838e-05 8.43313e-06 9.11938e-06 2.09522e-05 6.33494e-06 9.11938e-06 1.32528e-05 1.32528e-05 7.8448e-06 2.80904e-05 1.38076e-05 4.21468e-06 0.000251962 5.74138e-06 5.3719e-06 1.10661e-05 6.33494e-06 5.74138e-06 7.8448e-06 3.81646e-05 8.84138e-05 4.32387e-06 4.32387e-06 4.64493e-06 4.64493e-06 1.32528e-05 4.21468e-06 1.32528e-05 2.09522e-05 1.10661e-05 7.8448e-06 7.8448e-06 8.3838e-05 1.32528e-05 4.21468e-06 7.8448e-06 7.8448e-06 8.84138e-05 7.8448e-06 9.11938e-06 3.81646e-05 4.32387e-06 7.76673e-05 3.15261e-05 5.3719e-06 1.38076e-05 5.3719e-06 0.000110922 9.11938e-06 3.156e-05 1.10661e-05 3.81646e-05 2.80904e-05 1.32528e-05 3.15261e-05 1.4406e-05 1.32528e-05 1.38076e-05 4.21468e-06 1.38076e-05 3.81646e-05 1.4406e-05 3.81646e-05 9.11938e-06 5.3719e-06 4.64493e-06 0.000110922 5.74138e-06 9.11938e-06 4.64493e-06 9.11938e-06 7.76673e-05 0.000187165 5.3719e-06 6.33494e-06 6.33494e-06 3.15261e-05 4.64493e-06 8.84138e-05 2.80904e-05 0.000187165 4.64493e-06 1.38076e-05 3.81646e-05 5.3719e-06 1.4406e-05 2.09522e-05 4.64493e-06 6.33494e-06 1.32528e-05 4.64493e-06 1.38076e-05 2.80904e-05 0.000110922 8.43313e-06 1.10661e-05 1.32528e-05 4.32387e-06 1.32528e-05 7.8448e-06 1.4406e-05 4.69278e-05 1.32528e-05 5.3719e-06 4.64493e-06 2.09522e-05 0.000115922 3.76475e-06 1.38076e-05 3.81646e-05 4.64493e-06 8.43313e-06 5.74138e-06 3.15261e-05 4.32387e-06 8.43313e-06 5.74138e-06 1.32528e-05 0.000115922 0.000110922 3.76475e-06 1.38076e-05 1.38076e-05 1.32528e-05 4.32387e-06 3.156e-05 1.32528e-05 0.000251962 3.76475e-06 4.32387e-06 1.10661e-05 0.000110922 1.10661e-05 4.32387e-06 0.000115922 5.74138e-06 2.80904e-05 1.38076e-05 3.156e-05 1.38076e-05 0.000110922 3.76475e-06 4.64493e-06 7.8448e-06 1.38076e-05 3.76475e-06 1.10661e-05 3.81646e-05 3.15261e-05 2.80904e-05 8.3838e-05 4.21468e-06 8.3838e-05 2.09522e-05 1.38076e-05 8.84138e-05 4.21468e-06 5.74138e-06 1.38076e-05 2.09522e-05 8.84138e-05 7.76673e-05 1.10661e-05 1.4406e-05 1.4406e-05 1.32528e-05 4.21468e-06 5.3719e-06 1.38076e-05 2.09522e-05 4.64493e-06 4.32387e-06 9.11938e-06 2.80904e-05 0.000110922 3.156e-05 3.156e-05 2.09522e-05 3.81646e-05 2.09522e-05 3.156e-05 3.76475e-06 5.3719e-06 2.80904e-05 6.33494e-06 3.76475e-06 1.38076e-05 4.32387e-06 3.15261e-05 9.11938e-06 1.4406e-05 9.11938e-06 6.33494e-06 8.84138e-05 1.4406e-05 1.32528e-05 7.8448e-06 1.10661e-05 8.43313e-06 5.74138e-06 2.80904e-05 2.09522e-05 8.43313e-06 4.21468e-06 8.84138e-05 0.000115922 1.32528e-05 8.84138e-05 7.8448e-06 3.156e-05 7.8448e-06 2.80904e-05 2.80904e-05 3.76475e-06 4.21468e-06 5.81379e-05 8.84138e-05 1.32528e-05 1.32528e-05 5.81379e-05 2.09522e-05 5.74138e-06 3.156e-05 4.32387e-06 9.11938e-06 3.156e-05 7.8448e-06 4.64493e-06 1.4406e-05 6.33494e-06 4.21468e-06 1.32528e-05 7.76673e-05 0.000115922 8.3838e-05 4.32387e-06 5.74138e-06 2.80904e-05 0.000110922 1.32528e-05 0.000115922 1.4406e-05 3.76475e-06 0.000251962 0.000115922 6.33494e-06 1.4406e-05 8.84138e-05 8.84138e-05 1.32528e-05 2.80904e-05 4.21468e-06 5.74138e-06 5.74138e-06 
</DataArray>
<DataArray type="Float64" Name="cell variable 7" format="ascii">
0.0788486 0.0886341 0.176526 0.0863829 0.184332 0.109939 0.0788486 0.109939 0.15552 0.139181 0.0738515 0.091923 0.142821 0.091923 0.185875 0.115625 0.0863829 0.0813708 0.142859 0.203114 0.214434 0.10127 0.10127 0.0989326 0.0863829 0.185875 0.142859 0.0738515 0.10127 0.184332 0.142859 0.10127 0.103782 0.091923 0.0788486 0.115625 0.115625 0.184332 0.172124 0.148901 0.174715 0.129973 0.129973 0.115625 0.142859 0.0813708 0.0788486 0.129973 0.103782 0.176526 0.0788486 0.139181 0.148901 0.142859 0.0788486 0.0863829 0.0886341 0.214434 0.0788486 0.116913 0.172124 0.162493 0.091923 0.0863829 0.116913 0.214434 0.0779382 0.129973 0.091923 0.0989326 0.184332 0.0779382 0.0989326 0.118245 0.185875 0.091923 0.0738515 0.109939 0.118245 0.0788486 0.203114 0.162493 0.0788486 0.129973 0.0788486 0.116913 0.091923 0.0813708 0.0738515 0.0863829 0.142821 0.162493 0.10127 0.185875 0.103782 0.103782 0.148901 0.115625 0.0779382 0.0788486 0.091923 0.091923 0.115625 0.109939 0.115625 0.115625 0.10127 0.0779382 0.203114 0.116913 0.148901 0.142821 0.148901 0.172124 0.116913 0.0738515 0.142859 0.176526 0.0788486 0.142859 0.185875 0.0863829 0.0989326 0.109939 0.172124 0.172124 0.174715 0.0886341 0.10127 0.142821 0.174715 0.0788486 0.0989326 0.0863829 0.185875 0.0886341 0.184332 0.142859 0.091923 0.115625 0.142821 0.0989326 0.0779382 0.148901 0.214434 0.103782 0.174715 0.10127 0.103782 0.129973 0.091923 0.103782 0.115625 0.115625 0.0989326 0.139181 0.116913 0.0779382 0.214434 0.0886341 0.0863829 0.109939 0.091923 0.0886341 0.0989326 0.148901 0.176526 0.0788486 0.0788486 0.0813708 0.0813708 0.115625 0.0779382 0.115625 0.129973 0.109939 0.0989326 0.0989326 0.174715 0.115625 0.0779382 0.0989326 0.0989326 0.176526 0.0989326 0.103782 0.148901 0.0788486 0.172124 0.142821 0.0863829 0.116913 0.0863829 0.184332 0.103782 0.142859 0.109939 0.148901 0.139181 0.115625 0.142821 0.118245 0.115625 0.116913 0.0779382 0.116913 0.148901 0.118245 0.148901 0.103782 0.0863829 0.0813708 0.184332 0.0886341 0.103782 0.0813708 0.103782 0.172124 0.203114 0.0863829 0.091923 0.091923 0.142821 0.0813708 0.176526 0.139181 0.203114 0.0813708 0.116913 0.148901 0.0863829 0.118245 0.129973 0.0813708 0.091923 0.115625 0.0813708 0.116913 0.139181 0.184332 0.10127 0.109939 0.115625 0.0788486 0.115625 0.0989326 0.118245 0.15552 0.115625 0.0863829 0.0813708 0.129973 0.185875 0.0738515 0.116913 0.148901 0.0813708 0.10127 0.0886341 0.142821 0.0788486 0.10127 0.0886341 0.115625 0.185875 0.184332 0.0738515 0.116913 0.116913 0.115625 0.0788486 0.142859 0.115625 0.214434 0.0738515 0.0788486 0.109939 0.184332 0.109939 0.0788486 0.185875 0.0886341 0.139181 0.116913 0.142859 0.116913 0.184332 0.0738515 0.0813708 0.0989326 0.116913 0.0738515 0.109939 0.148901 0.142821 0.139181 0.174715 0.0779382 0.174715 0.129973 0.116913 0.176526 0.0779382 0.0886341 0.116913 0.129973 0.176526 0.172124 0.109939 0.118245 0.118245 0.115625 0.0779382 0.0863829 0.116913 0.129973 0.0813708 0.0788486 0.103782 0.139181 0.184332 0.142859 0.142859 0.129973 0.148901 0.129973 0.142859 0.0738515 0.0863829 0.139181 0.091923 0.0738515 0.116913 0.0788486 0.142821 0.103782 0.118245 0.103782 0.091923 0.176526 0.118245 0.115625 0.0989326 0.109939 0.10127 0.0886341 0.139181 0.129973 0.10127 0.0779382 0.176526 0.185875 0.115625 0.176526 0.0989326 0.142859 0.0989326 0.139181 0.139181 0.0738515 0.0779382 0.162493 0.176526 0.115625 0.115625 0.162493 0.129973 0.0886341 0.142859 0.0788486 0.103782 0.142859 0.0989326 0.0813708 0.118245 0.091923 0.0779382 0.115625 0.172124 0.185875 0.174715 0.0788486 0.0886341 0.139181 0.184332 0.115625 0.185875 0.118245 0.0738515 0.214434 0.185875 0.091923 0.118245 0.176526 0.176526 0.115625 0.139181 0.0779382 0.0886341 0.0886341 
</DataArray>
<DataArray type="Float64" Name="cell variable 8" format="ascii">