<VTKFile type="UnstructuredGrid" version="0.1">
<UnstructuredGrid>
<Piece  NumberOfPoints="    3359" NumberOfCells="    2467">
<Points>
<DataArray type="Float64" NumberOfComponents="3" format="ascii">
-36.7301 44.4331 0 
11.0684 9.84698 0 
-12.1725 -14.3005 0 
23.2835 -36.9057 0 
-62.6645 -1.62786 0 
-48.1049 22.583 0 
11.6887 -55.098 0 
38.3502 16.2342 0 
36.4626 -2.54122 0 
2.06473 -34.3934 0 
17.519 -1.54547 0 
-4.15879 -43.734 0 
-18.2443 53.2846 0 
35.4865 -31.9488 0 
18.2905 18.1281 0 
-13.9524 -54.8997 0 
-27.2942 23.6396 0 
-8.11461 22.958 0 
-38.1239 -49.0433 0 
41.2977 -24.3354 0 
-5.05435 36.0728 0 
51.8622 -28.0759 0 
35.3985 -0.183651 0 
7.53443 0.733903 0 
1.59426 -40.393 0 
-15.768 15.0068 0 
-33.5275 -41.3176 0 
-18.042 40.0855 0 
-60.4867 -5.24945 0 
-0.257338 -28.5769 0 
2.07742 -24.0556 0 
-21.2275 -25.2102 0 
-27.8963 43.058 0 
-37.8255 -2.57222 0 
-37.2198 -18.9963 0 
-15.873 -54.4893 0 
-17.5559 46.1169 0 
41.1834 19.9238 0 
-7.27487 5.81562 0 
-27.5876 3.87991 0 
-20.7728 -25.9531 0 
-58.8576 -14.5949 0 
-0.509022 -13.5248 0 
-15.5066 -48.3464 0 
41.0117 12.179 0 
-6.98543 30.3535 0 
-16.1497 -0.952605 0 
-36.0062 42.7632 0 
7.09709 27.5816 0 
-5.37637 -56.2088 0 
62.452 -8.04629 0 
-1.17929 -40.73 0 
-33.0048 -12.0841 0 
25.8425 3.16612 0 
-33.1454 -31.375 0 
-56.6955 8.96117 0 
22.2739 23.8583 0 
28.8482 33.7718 0 
17.3463 -35.0616 0 
7.58932 55.2695 0 
-34.2656 42.6067 0 
-46.1278 0.747927 0 
-6.50655 -56.5844 0 
51.6011 8.61063 0 
-14.5165 31.7677 0 
-17.5231 -43.6333 0 
31.4969 40.6006 0 
-31.7643 -48.5767 0 
31.3023 -23.0539 0 
-23.6592 16.0407 0 
18.9717 -5.21281 0 
-22.8894 48.6232 0 
29.3863 -46.5298 0 
46.3781 -16.798 0 
23.3153 3.58238 0 
24.4741 -4.26808 0 
32.3707 -35.9461 0 
-41.7561 -42.7099 0 
-39.3338 40.7233 0 
45.7825 15.0735 0 
-45.0606 0.075037 0 
12.4033 20.1331 0 
-13.4823 -13.6109 0 
-18.3548 -55.9384 0 
-42.9665 21.1495 0 
1.22644 34.5796 0 
40.4689 13.7167 0 
-34.6473 14.4448 0 
-60.6456 11.3319 0 
-49.4928 -12.8876 0 
-27.1959 -15.8327 0 
-38.0858 -37.6578 0 
31.3262 42.8755 0 
9.48271 16.5749 0 
43.7546 -24.486 0 
30.9726 28.4303 0 
40.359 -3.08929 0 
-29.0375 53.5482 0 
51.6818 22.8742 0 
15.1521 -46.9115 0 
9.19263 -39.2293 0 
44.1355 -6.8414 0 
-19.5415 31.6301 0 
-20.0192 -6.02928 0 
43.2693 -4.84687 0 
-18.6328 -0.843397 0 
-23.0777 -49.7603 0 
41.818 -3.61958 0 
22.8872 -41.1426 0 
53.0967 -15.7325 0 
9.59803 -56.0021 0 
-23.1935 16.6707 0 
37.7293 28.9764 0 
37.3846 -10.8313 0 
21.3029 -49.8871 0 
-0.377007 -19.1829 0 
-42.5579 -39.4129 0 
9.9978 -33.5186 0 
-7.38923 -30.8417 0 
52.0459 -6.95368 0 
41.9487 9.6778 0 
9.50227 -0.998642 0 
-32.833 17.018 0 
-0.854582 16.4168 0 
32.8413 -38.9001 0 
8.25741 -56.9169 0 
-21.4117 -28.8126 0 
24.1557 14.4635 0 
-58.0263 -20.9009 0 
-54.8671 18.7003 0 
29.0329 -52.5666 0 
-30.3313 -2.1558 0 
14.7406 6.32302 0 
-16.7443 -24.8847 0 
50.784 -30.1761 0 
12.891 -60.841 0 
45.1603 -8.0063 0 
46.2085 -38.67 0 
6.96758 11.7072 0 
-53.5193 -3.76802 0 
23.2674 36.7224 0 
-39.781 8.22845 0 
15.6659 30.9984 0 
-7.8977 22.7918 0 
-44.4283 9.48 0 
3.93883 43.8814 0 
26.6817 53.2021 0 
31.5308 -35.7897 0 
-34.5814 -3.33234 0 
17.7761 57.1509 0 
23.3599 27.2275 0 
54.3339 16.5843 0 
-36.9001 -3.28217 0 
14.6331 -21.9358 0 
38.3031 -45.2616 0 
29.3653 48.9048 0 
11.7449 26.0509 0 
26.7262 16.7587 0 
-33.3809 28.2343 0 
10.941 48.8992 0 
-30.5528 -5.20493 0 
-17.3773 -19.8867 0 
-43.8511 -24.2124 0 
19.1777 -41.7127 0 
48.5346 13.7011 0 
30.3482 -9.56436 0 
33.4721 45.6011 0 
23.7199 -24.7438 0 
2.16885 24.6131 0 
-23.5515 -34.7072 0 
36.1836 10.0301 0 
-36.3965 22.3224 0 
-47.1506 20.0945 0 
-17.1298 -35.8897 0 
8.19771 -11.02 0 
-12.9277 26.4073 0 
-19.2212 35.0727 0 
-37.3907 4.36467 0 
32.0278 39.9134 0 
19.6185 -11.58 0 
-36.4924 32.6736 0 
-55.8212 -27.2468 0 
-38.1316 -27.7667 0 
-3.15122 5.64223 0 
-15.4963 26.1499 0 
30.3166 -29.1863 0 
-50.0086 13.0275 0 
14.8857 40.4934 0 
14.2316 -13.7592 0 
-38.0796 -17.8327 0 
33.1356 -39.2768 0 
21.6783 7.96583 0 
-54.8769 19.2906 0 
-53.699 -6.01761 0 
-36.7694 7.2552 0 
41.9398 -24.801 0 
8.06422 16.6842 0 
-26.1517 13.4082 0 
4.77379 7.02459 0 
-23.3985 56.0623 0 
-14.343 59.8743 0 
40.8542 -3.60887 0 
-19.8692 15.5257 0 
15.3333 41.3033 0 
-17.8315 -43.6332 0 
-1.93901 20.0456 0 
34.9139 -34.5053 0 
-19.062 49.0204 0 
-2.50666 -6.949 0 
-50.5154 24.9902 0 
-7.02973 -31.3957 0 
-26.6556 -44.0558 0 
-12.9471 37.2485 0 
13.9286 -55.4197 0 
8.92998 33.923 0 
40.0275 -31.7322 0 
-44.9813 38.7238 0 
-5.64536 54.8577 0 
51.4066 -1.9546 0 
-6.42617 35.5275 0 
-18.914 26.4345 0 
-36.7959 5.01414 0 
-11.6742 51.9012 0 
39.7138 27.1017 0 
16.4809 33.7187 0 
24.7876 -43.4705 0 
39.981 33.0962 0 
38.2004 -25.4632 0 
-42.4748 -12.9829 0 
-6.582 31.6338 0 
-3.06792 27.4972 0 
22.2015 -3.2278 0 
-41.0828 30.9133 0 
1.0306 -54.1068 0 
33.4899 -48.6827 0 
27.32 -52.9393 0 
18.7834 33.4324 0 
-11.4379 9.03424 0 
-32.9905 15.6816 0 
-28.6496 -22.7972 0 
-52.7451 -8.22039 0 
-2.06846 28.9478 0 
-25.7865 -9.4008 0 
-53.2895 -2.4504 0 
30.301 -15.181 0 
-43.3604 20.8263 0 
2.46629 17.1972 0 
-7.29019 -29.2954 0 
-13.0916 24.9582 0 
-38.4303 38.805 0 
-13.3261 -60.0954 0 
23.5638 -27.685 0 
-48.7918 -25.2113 0 
36.7196 -14.4331 0 
9.60492 -28.024 0 
-12.2635 -31.6709 0 
-40.8553 -8.48155 0 
13.9367 -41.608 0 
36.0337 -2.43883 0 
-20.0053 -19.026 0 
-28.2494 -43.4288 0 
-49.8298 -35.8078 0 
-35.6098 22.3271 0 
29.4462 -1.8337 0 
4.62808 -22.3839 0 
20.9584 -13.8842 0 
-12.0765 12.6502 0 
0.301713 57.7002 0 
17.1 -55.4098 0 
37.1062 -19.3995 0 
-17.6213 36.4865 0 
-23.2182 -35.5653 0 
-33.2051 -50.5375 0 
53.9066 27.4243 0 
20.934 12.7073 0 
39.5021 40.0189 0 
-21.4948 -29.8427 0 
-33.9768 28.0459 0 
-25.7335 -53.077 0 
-7.96772 -6.49774 0 
13.6818 49.994 0 
-48.2717 0.729162 0 
-13.8854 55.3395 0 
20.1693 -50.2644 0 
0.65745 -60.5396 0 
39.7365 47.2951 0 
-10.4673 52.0509 0 
12.004 43.8082 0 
18.9957 -46.5415 0 
53.2983 8.02433 0 
-41.4104 -18.2253 0 
-6.15328 -33.4535 0 
-4.21002 23.224 0 
-22.9392 20.9872 0 
63.102 8.32947 0 
56.1468 -11.064 0 
-14.7142 -35.6634 0 
-0.607987 33.442 0 
15.1088 49.6929 0 
-7.08672 -37.683 0 
12.8229 59.3753 0 
9.28402 26.2367 0 
-9.31706 -38.4848 0 
-9.18569 58.5332 0 
5.2532 55.041 0 
-22.3239 48.6663 0 
9.87599 41.0814 0 
2.00075 17.597 0 
44.4584 29.119 0 
28.4366 32.4553 0 
2.72155 47.6453 0 
-11.2845 44.9753 0 
-56.3026 4.92577 0 
16.5498 -35.0095 0 
18.9326 -6.48312 0 
-58.7309 0.917496 0 
-20.9797 16.2797 0 
-7.52332 -16.9994 0 
37.2688 -12.5308 0 
44.7601 -43.6034 0 
30.4712 -28.3407 0 
37.6614 -8.36302 0 
-4.60169 52.3651 0 
29.3626 2.3814 0 
6.81701 -46.0039 0 
-45.1513 43.7993 0 
-12.6503 -10.4957 0 
8.56011 -27.6624 0 
22.9878 -37.8355 0 
-31.6201 0.91922 0 
21.0648 -14.6519 0 
-45.9823 -38.1479 0 
-48.8341 -37.3364 0 
-30.815 -32.3583 0 
23.238 33.0459 0 
22.7495 -23.5472 0 
-33.4086 9.23443 0 
-51.8674 11.3253 0 
-53.0804 -7.86256 0 
-24.2224 19.8847 0 
-51.9595 33.1377 0 
-37.381 -35.2048 0 
25.8357 -47.7692 0 
53.7608 8.50308 0 
-22.9004 -49.7336 0 
14.7914 49.6891 0 
-2.40086 22.047 0 
43.3964 -19.0715 0 
-10.8461 7.12347 0 
32.9478 9.82577 0 
-37.4151 41.449 0 
-16.7918 -43.9455 0 
-18.6323 7.12268 0 
-3.05764 -6.95005 0 
8.94175 -13.9515 0 
-24.156 41.4551 0 
-50.6698 27.6128 0 
46.8182 -38.2732 0 
-55.325 16.426 0 
16.6598 -37.6436 0 
-0.0659714 -48.9084 0 
-10.4374 -54.8587 0 
-48.8737 -8.38572 0 
-23.8666 7.44612 0 
-54.1908 -10.065 0 
4.04347 20.4839 0 
-10.177 43.6706 0 
-21.6991 -41.3487 0 
60.1753 21.6619 0 
0.692244 -0.740697 0 
-2.31401 -23.2967 0 
-23.3131 -56.2649 0 
-0.488395 57.3855 0 
15.3296 37.0179 0 
4.17022 -23.2543 0 
-42.0343 -40.6662 0 
38.1884 -43.6356 0 
0.398612 -40.9193 0 
-12.9568 14.1725 0 
3.80402 -6.87013 0 
33.7147 33.0672 0 
-30.8948 30.0939 0 
15.6217 10.3066 0 
13.9241 7.6207 0 
9.04261 -10.3882 0 
-33.318 19.3111 0 
45.1379 27.8172 0 
45.7903 -8.03884 0 
-10.8893 37.9804 0 
-33.8631 40.9723 0 
-30.6767 14.7156 0 
-6.0146 4.56143 0 
10.2006 34.8416 0 
60.443 -2.09179 0 
20.0736 -10.1365 0 
-44.0454 2.44105 0 
-7.71745 5.95013 0 
-36.7664 -23.0069 0 
-13.3697 36.8887 0 
55.3043 -6.14608 0 
42.6926 -31.0199 0 
-19.8974 -27.8709 0 
53.8738 -25.2939 0 
-59.4708 20.372 0 
2.3754 -35.3339 0 
-57.2265 0.90693 0 
34.1099 45.6735 0 
-27.2872 13.3045 0 
-6.44323 -45.93 0 
13.1314 24.0005 0 
-43.3963 13.2953 0 
40.3561 29.2774 0 
33.4714 21.6332 0 
-29.9542 22.4445 0 
-47.4162 19.6153 0 
-31.2039 -50.646 0 
-6.64415 0.484304 0 
0.0600314 10.5596 0 
-50.7441 -9.19384 0 
42.6581 -37.6346 0 
-36.4552 -44.6815 0 
22.9522 40.1515 0 
-47.4719 -38.2338 0 
27.382 15.1595 0 
50.0862 21.1049 0 
55.0305 11.099 0 
-43.886 -28.713 0 
-6.9736 -11.796 0 
-41.5234 32.0996 0 
8.8897 16.2776 0 
20.2812 -32.4657 0 
38.1704 36.1464 0 
-48.6293 15.0459 0 
-11.8693 9.46741 0 
-23.8979 -1.17274 0 
17.3834 -22.7569 0 
1.96208 -62.4596 0 
6.90517 -7.53919 0 
-23.9811 36.6185 0 
46.9288 1.37986 0 
-12.8369 -21.0353 0 
56.095 4.12555 0 
-44.0694 -33.9531 0 
49.3162 9.45981 0 
-43.3643 38.5505 0 
-28.4897 -23.7705 0 
19.9453 55.0982 0 
-30.4518 -26.8155 0 
-13.5954 -20.8904 0 
42.6193 21.0444 0 
-42.6913 -17.6136 0 
54.3206 -7.30345 0 
-24.6937 49.3638 0 
1.95464 42.8263 0 
-14.7954 -54.4066 0 
21.7754 -23.6501 0 
19.9204 -32.6849 0 
15.2927 -22.6323 0 
-6.08393 -45.2634 0 
20.5812 11.4605 0 
-40.8708 -12.5056 0 
-29.6357 -21.8909 0 
38.5027 47.8118 0 
-26.7576 34.8117 0 
-49.3287 14.5919 0 
13.8874 -26.2838 0 
16.4175 40.0534 0 
37.0087 47.7482 0 
30.8483 28.9457 0 
59.9078 22.3737 0 
-34.0155 -12.4149 0 
8.76017 -56.9004 0 
17.4297 -28.9147 0 
11.9833 15.6155 0 
12.3915 -2.97893 0 
-10.1121 -22.7434 0 
-1.16902 -24.2172 0 
43.387 -30.0312 0 
16.8892 -19.0126 0 
3.80068 26.1025 0 
15.2363 40.0194 0 
-20.3798 55.9234 0 
14.9646 -22.0458 0 
-11.4837 -6.51316 0 
13.0499 -53.1801 0 
-8.63991 -5.98902 0 
-15.0721 -49.5426 0 
30.585 -8.09331 0 
5.83648 -14.8538 0 
-8.89187 -27.9782 0 
24.3301 2.67295 0 
-31.1707 -18.4107 0 
-3.75516 36.0794 0 
[...]
<CellData Scalars="wall variable 0">
<DataArray type="Float64" Name="wall length" format="ascii">
1.07442 6.50435 2.21926 5.55092 2.3394 3.91597 1.08334 2.41529 3.1622 0.669421 3.68155 1.15544 6.32856 3.58591 6.99126 1.72762 1.25106 6.61752 5.19397 3.31473 5.19697 1.38816 2.73806 0.516161 7.13039 1.23173 3.39426 4.63339 1.69136 2.15844 3.63979 3.36348 0.75921 2.78444 7.99505 3.54186 0.56038 0.971357 6.74094 5.62629 2.98386 5.54393 3.59097 5.40884 2.15844 0.27598 6.57517 1.07997 1.31069 1.26205 1.41194 2.32033 6.11842 3.91679 0.729071 3.00613 2.05709 0.316892 2.84307 4.59611 0.611496 6.56292 1.17561 0.829752 3.48612 0.712762 4.46923 5.06089 1.95487 2.97553 3.05983 0.172569 7.50991 0.561238 8.83996 1.87703 1.47278 0.820256 8.25977 2.68624 1.2035 3.94522 1.19758 0.653802 2.33439 5.54858 3.15038 6.46469 2.37457 4.63125 0.564004 1.26482 4.19931 3.05537 3.41141 0.239193 6.92651 1.01762 6.21168 1.66959 0.459156 2.66314 3.47848 2.85604 1.45341 2.26119 0.414027 3.67074 3.3 1.96453 6.7973 1.79463 1.54193 0.730632 4.63125 2.12736 1.47458 8.1975 2.12736 2.37457 4.0223 0.95951 2.03453 7.48293 1.96263 6.50855 2.29206 0.711272 6.06687 0.928057 0.196711 2.72729 5.5747 1.23425 2.24102 1.74669 9.88035 3.56484 6.15149 5.34768 1.15544 2.37717 1.63635 4.32274 0.696607 1.16264 2.4876 0.966497 1.93923 6.18335 2.15334 4.45467 0.583851 1.45009 3.67222 6.9765 0.799319 6.7973 2.59909 2.15293 7.9355 0.102481 5.56887 4.46886 1.06016 3.03689 4.58014 2.52645 6.06694 2.12969 1.37035 5.46526 2.59909 1.96453 2.64208 4.36266 5.0142 5.04786 4.36144 3.03156 3.25446 1.25901 1.45979 1.81998 6.53453 3.5522 4.28062 4.87665 3.03551 1.81425 7.63364 1.07635 10.6615 0.979348 7.71686 0.712762 0.515878 3.78438 0.420663 2.89586 1.957 1.88871 2.39743 10.6615 1.86146 1.58476 7.85651 1.74656 0.462434 2.39108 2.61933 5.54674 6.39021 0.24685 9.1857 1.2994 8.50042 0.514293 1.92462 0.968412 7.63364 6.41442 5.7438 0.180831 6.82958 1.33976 2.52645 1.93882 0.500838 4.3435 0.733274 2.5194 3.99992 4.0519 0.462291 1.23425 7.19275 1.61111 0.408844 3.66014 5.80149 3.63641 7.7399 0.8673 6.09299 3.41141 0.514089 8.43727 6.01473 2.03107 1.33751 6.08584 3.30953 4.3435 4.13312 5.17957 6.96087 3.25446 0.221627 1.33976 1.3702 3.24702 3.31567 1.52728 6.06694 7.85651 6.69529 1.29619 4.5578 0.584104 7.23301 2.44659 1.20895 2.95798 5.07429 0.782554 11.1361 0.983464 1.20895 0.340688 0.488997 8.32379 0.924127 2.12326 7.2908 5.44697 0.995203 1.08334 5.33098 1.81698 0.686509 6.76947 2.16358 3.67842 5.53697 2.59383 5.0985 2.98386 0.525237 1.71171 8.4145 4.43105 8.21896 6.61774 1.07084 4.28062 1.27484 3.01604 1.38505 8.9826 3.98196 6.24709 2.96138 3.68412 0.409794 0.95879 6.48828 3.77423 0.401797 3.61571 3.47848 1.54385 2.51552 6.21822 2.56469 3.99992 1.62351 1.56148 3.67074 6.93691 1.93882 5.46526 0.646792 3.91269 7.17941 4.31107 1.15835 0.857953 1.05319 9.0614 1.77876 2.70819 6.26727 3.76864 2.4286 5.29596 3.03314 0.924127 7.99595 2.12075 7.6379 0.79309 1.55783 1.24783 5.07429 1.47458 7.48293 1.00857 1.06445 3.60912 1.0404 1.63124 2.61933 4.69635 5.32001 2.81743 3.92407 1.19758 0.797164 6.86146 0.824232 3.39898 7.26615 2.42493 8.45744 1.43468 2.39736 9.32166 4.55755 5.21999 6.26727 2.19124 1.08744 3.14099 1.0731 2.63581 3.30499 6.50855 3.3363 6.51893 0.323531 2.60973 4.47314 1.65799 2.05403 2.7177 10.2978 1.55783 10.3384 1.2032 0.347463 1.00393 4.48594 1.96064 1.63635 1.43885 6.46869 0.150058 8.43727 4.62703 5.77927 1.79278 0.912564 2.90661 3.53343 0.494147 2.2122 6.63485 2.08306 1.28218 2.96659 1.69833 3.13033 5.72559 5.03004 4.34984 5.33348 1.54193 6.14881 1.40822 5.06089 1.46632 4.31154 4.58014 8.72552 1.90079 10.3543 1.07997 8.65292 1.56148 4.3224 3.68456 4.71973 0.694039 5.40493 3.84727 3.67643 4.54511 2.19124 2.70819 1.17194 3.05508 1.32162 7.68666 1.91513 3.05508 5.27951 7.90319 3.05983 5.76921 4.96467 3.0309 2.85539 3.1025 3.00613 4.4545 1.06828 0.896925 6.79546 2.81952 9.17178 2.39498 0.398744 5.90205 0.6901 1.75385 2.85368 4.36266 1.2518 4.72904 5.91948 0.711272 0.219148 7.00576 2.01521 0.561238 0.389977 0.735089 1.15835 6.44174 1.724 0.403032 1.41197 7.90319 0.586468 4.97476 1.95587 1.92462 0.547465 0.221627 3.03156 5.4058 3.64612 0.406092 9.81764 2.06389 5.54858 4.64648 0.652827 2.31625 1.4425 3.4364 7.747 0.340688 2.44659 5.05143 0.509776 4.8526 0.60218 6.29619 6.56292 4.71973 4.99711 1.41337 4.62203 0.64504 1.31069 4.65488 5.16851 5.29649 3.20922 2.83014 0.325643 3.82061 3.6958 3.71039 1.89748 9.17178 1.02487 6.41442 1.81425 2.81982 0.473931 1.09302 9.03314 1.3323 0.795397 3.2215 3.45646 1.26304 4.43741 6.21168 5.69482 2.95465 0.483916 4.46923 7.71686 3.01911 1.42718 1.26205 0.64504 5.05495 1.26304 5.57689 1.33406 6.9765 1.05445 0.940947 5.55092 3.20565 0.628277 1.4425 6.05162 2.00047 1.84059 2.85085 7.06103 0.430231 8.39573 0.697668 0.797486 4.50332 3.13033 3.55887 0.977098 4.87665 1.07084 1.8054 1.52836 0.374019 0.511299 9.38211 1.72568 4.60195 0.815288 0.597163 4.43318 8.39573 0.653802 7.26615 0.615203 4.86005 4.32771 0.481778 4.19983 4.69486 5.42214 7.82589 1.48524 4.3181 1.05445 3.67222 7.3363 3.3726 6.67928 2.9698 0.743865 1.05637 5.22014 1.79142 3.00565 1.39364 1.0731 1.31078 5.38456 0.607834 6.96715 5.58716 6.33673 0.404892 3.3726 1.1248 2.66822 1.8054 8.9826 2.1725 3.05247 6.12942 5.33098 6.32856 5.34768 0.59613 0.667994 3.01458 4.7929 0.625583 2.12075 2.95798 0.983464 3.08545 3.18528 7.34168 6.28804 5.33719 0.63692 8.35496 6.44174 4.31107 0.48395 0.347463 0.52862 4.22996 0.196711 1.7525 0.783644 7.0222 5.61574 0.462291 8.18459 1.06184 2.06064 3.01501 0.890912 2.7338 0.57637 2.24102 2.34401 8.50042 2.3114 4.0056 3.06712 1.89604 1.66959 4.43741 5.05495 4.62203 6.63892 5.91948 1.80359 0.397456 3.18528 3.30128 6.06687 0.679643 8.4145 3.7707 0.788445 1.72762 4.35477 4.42569 0.323531 2.831 5.25271 0.989604 5.66865 3.1375 7.12263 2.06266 3.37545 3.61721 1.84019 0.157966 7.75034 2.32573 3.62076 5.77927 2.23784 7.82198 0.606519 1.99695 6.02586 1.93923 0.480613 9.81764 2.46279 0.656801 1.45893 7.31664 2.40837 6.79882 4.42752 0.257429 7.80965 1.13406 6.99075 0.659398 4.94252 3.18689 2.51108 4.0519 2.56469 4.04405 1.86705 8.18459 1.83806 4.74718 4.03486 1.47483 5.68734 4.90238 5.99551 1.27622 2.80838 1.69707 2.58701 0.680753 0.292199 4.28902 7.62376 9.71065 1.42792 6.45408 3.20922 0.233713 0.937863 0.882944 9.54404 4.06783 0.750718 2.83014 6.45408 4.70143 2.84594 4.73563 4.46528 3.55887 1.69833 0.313298 6.75275 2.65409 3.52726 5.53697 6.91064 2.45379 3.29033 6.99075 0.886293 6.92651 0.617422 4.25915 2.34695 4.24248 0.420663 8.13059 2.96244 0.619751 4.92676 5.22764 1.08744 7.68666 2.2565 1.85139 1.00393 4.75183 0.275169 1.77876 2.65409 3.11797 3.61721 6.95915 4.09209 4.64648 2.33439 0.481778 7.4914 3.04165 3.57859 0.896925 4.81755 0.398744 7.04624 3.5061 9.36572 0.389977 8.25977 2.0046 5.21275 0.57283 3.35503 3.02152 1.84059 2.82538 6.53535 2.70258 4.15408 0.4646 4.33719 2.46293 5.50692 1.24891 0.8673 0.150058 3.62076 3.40489 6.96087 1.41542 3.75191 1.56532 5.65927 2.21055 1.25901 3.94564 6.04004 3.00244 8.48632 3.41862 6.51273 1.22546 0.686509 3.52726 1.77876 0.522687 1.7525 9.88035 1.04255 2.05084 0.861597 7.62376 0.594739 4.4832 6.55544 0.98157 1.83806 6.38519 2.39712 0.619751 1.02744 3.0072 3.86856 0.50486 0.584104 1.24783 10.2978 4.68164 1.16121 5.29696 0.59613 6.15149 1.87116 4.2902 5.69482 0.979348 1.53659 0.564476 3.00244 5.95917 1.93781 4.63039 6.97655 3.46385 7.22717 4.42209 3.5429 2.2122 2.45143 6.6628 4.29401 2.51232 1.43468 1.2518 2.64208 3.3 0.646792 1.37035 4.21611 3.81253 0.625583 3.37583 3.45965 3.6021 0.56986 7.6379 0.89954 2.37717 3.68155 4.51776 7.00576 3.14099 1.96263 1.15965 6.74094 0.807101 0.80926 6.00865 1.31078 0.997697 4.92676 2.39712 2.7177 0.48395 7.17941 4.8526 0.611496 0.483916 1.22655 1.38816 6.10394 4.25661 0.27598 7.99505 2.29753 0.864921 3.71039 3.17605 0.525237 2.85998 7.75315 1.02552 1.99695 5.35343 0.63692 2.33563 0.515878 3.48612 0.420104 1.7524 1.6417 2.36579 6.13447 0.403032 0.439938 5.3683 2.23784 0.966497 2.37253 0.388731 9.33831 7.0222 6.86142 1.16396 3.3067 1.02482 1.97946 2.11375 1.06445 4.88315 4.35477 6.99126 0.76021 5.03294 5.39863 3.75842 1.41695 4.54511 3.86448 7.99595 8.32379 2.74528 4.89934 2.4113 1.09302 1.82027 0.707261 3.84727 1.81374 6.9893 4.32274 1.96064 2.78146 2.56852 3.45815 0.882944 6.33814 4.85545 2.96138 1.28167 8.1975 1.63124 4.8826 5.25239 1.9878 6.11842 6.06924 1.06016 1.16742 2.51108 0.424306 7.3363 1.45009 1.46511 1.20322 7.7399 3.72167 6.12188 5.95917 1.40746 2.20899 0.611654 4.00198 2.0046 2.00047 3.39353 0.4646 6.09845 0.57637 8.83543 1.44581 0.611654 0.0699591 7.04623 1.04255 1.74669 0.766147 7.80965 0.923935 1.48354 0.912369 4.50007 2.25963 1.54022 1.04536 6.78971 1.94632 1.92592 2.65697 1.41542 5.17957 3.39353 6.05162 2.31625 3.37786 2.92436 2.82538 4.00198 1.44581 2.84354 3.39993 5.21275 0.0699591 6.09845 4.15408 1.54264 0.475576 4.29401 1.80075 3.7707 1.71171 3.17605 3.6958 6.28802 6.58168 0.980373 4.41546 6.25148 0.019999 2.81693 5.54674 3.92407 2.5847 2.55964 6.94827 0.176045 4.20014 0.835995 5.27319 2.77965 0.706857 6.28012 3.59963 2.60973 4.42569 0.995675 6.5742 1.40746 6.97655 0.518405 5.25239 4.00135 1.76285 0.894191 2.65581 4.55755 0.275169 2.33081 0.99586 8.21896 6.12942 4.09861 0.664018 6.02845 1.52836 5.75187 5.78841 3.45965 2.42529 0.60218 4.25661 4.86659 1.40572 2.05403 0.546608 4.92008 3.29368 6.13459 1.45893 3.68599 5.27319 2.34401 6.398 0.587691 2.2565 1.32162 1.91513 1.41197 0.514293 5.03051 2.29753 2.78444 1.70042 7.12263 0.181183 7.27584 3.63979 5.40884 1.01306 0.782554 1.27484 3.5522 3.41653 3.24702 1.12394 0.836113 9.19949 3.35503 3.83954 4.90147 3.00565 1.0405 1.89604 2.5771 0.919646 5.18674 6.398 1.68198 1.957 7.1138 0.857953 0.735089 9.36572 1.06985 5.5577 5.50692 0.860906 4.06783 4.39596 6.64695 0.570517 1.77946 0.198429 7.2908 2.85553 2.42158 6.28012 3.08243 1.27622 0.819851 6.61752 0.019999 7.81824 5.63232 2.9698 3.95327 0.810464 1.85139 0.587691 5.18674 5.36281 2.78146 4.48594 5.33348 0.592676 0.586468 5.27951 1.17194 1.77876 7.90323 0.564004 0.730632 5.90205 4.81755 1.06828 8.06207 1.16396 6.29839 0.292199 0.221916 2.42493 0.519553 3.61125 5.0327 1.53352 6.79546 3.57859 1.15812 6.58168 1.17651 0.490135 9.54404 3.45815 0.270642 6.51093 2.86339 0.506303 4.94252 3.08785 4.04405 6.21822 2.34229 4.62744 3.29579 1.05637 0.580566 4.17928 0.595167 1.61608 1.06184 1.86705 3.08785 0.659398 3.29033 8.02579 3.64612 2.71809 3.62834 6.86294 3.03689 6.06924 2.32033 1.69045 1.86503 8.72552 0.406092 6.86294 0.404209 6.50435 2.26409 2.46279 1.36599 5.32001 6.07735 1.79381 6.38649 4.50741 1.48172 0.350452 0.650224 5.75187 1.14468 0.457012 4.0223 6.46469 0.519553 9.32166 3.43933 5.19397 1.65199 1.7135 3.32589 5.19576 2.37253 2.4876 2.80733 1.40865 0.706857 5.48132 5.17038 2.80838 3.08243 0.198429 9.01989 5.44883 5.44697 2.78737 3.989 0.507179 4.97476 0.592676 4.34984 4.50007 4.64439 1.82027 0.473931 7.85509 4.37066 1.99628 2.77392 2.23127 2.35709 1.75385 2.29206 3.30499 0.219148 9.33831 2.90314 4.68164 3.56484 0.89954 4.72904 3.81253 7.07686 0.617141 1.80359 0.631973 6.39021 2.81693 0.810464 1.19551 4.74718 0.98157 3.3067 5.0327 1.47235 3.94564 0.437563 1.86146 1.07635 0.968412 1.09321 2.58701 6.26133 2.3394 0.940947 4.3181 0.582874 1.71752 6.53905 0.330339 0.824232 6.85087 4.8957 2.76073 8.89996 2.80733 1.16264 7.88038 1.51344 1.6417 8.48498 0.618367 9.04354 0.615203 3.39898 0.330339 0.457085 2.06266 1.70042 0.75921 3.84554 5.13071 5.61954 4.6862 3.20565 2.21926 0.404209 3.62834 0.827148 1.26866 9.04354 1.55016 3.52847 3.4364 1.66051 1.46632 7.50991 1.4856 0.98922 2.06078 1.84653 5.58716 1.1533 2.0199 4.04976 3.95986 0.694039 1.41695 8.57791 6.81092 0.756421 6.63485 3.5429 0.77335 0.595167 4.6384 0.967635 4.19983 0.483413 1.05786 7.13039 1.96856 1.95487 1.40822 3.05812 1.16855 0.511299 1.99549 5.78369 0.912369 6.69959 1.19218 0.76021 3.67643 0.707261 4.64439 2.85539 8.84242 8.47986 1.4856 0.172569 2.06078 11.3691 1.50024 3.80265 4.4832 1.04397 1.36158 3.26817 4.59611 4.85785 2.40837 2.51908 2.86253 6.49117 1.2035 0.704573 2.18126 3.46385 0.494147 2.65581 4.24899 0.796837 3.0031 3.76864 5.21999 0.102481 10.3543 1.44658 7.74593 3.7202 0.435205 1.33751 0.921344 5.19912 2.15125 2.93259 4.79026 5.03294 1.19218 3.86856 6.74779 1.66051 0.509776 6.58799 1.4073 2.5847 2.81743 1.36599 0.353707 1.35749 1.21639 7.75034 6.69529 1.58476 0.437563 8.48632 0.564476 2.5638 3.00923 3.95986 0.938941 2.33558 1.81031 2.74528 5.40493 1.69707 5.17038 1.22018 3.91597 6.26133 1.7035 2.85606 2.72729 4.22996 0.466388 4.73563 0.50486 6.58799 5.05143 7.23301 0.717746 7.4711 0.203355 1.81374 5.36281 0.919646 6.35803 2.47597 5.7826 1.96562 0.270642 2.56852 6.24709 1.86218 6.35886 2.55964 1.4073 0.157966 4.62703 0.514089 3.05537 0.98922 8.47986 0.947334 1.56885 1.40865 1.2651 11.3691 3.67842 6.34864 2.36259 4.41546 0.918619 0.313298 2.09369 5.42214 1.07461 2.49654 9.1857 1.79463 1.28167 0.518405 4.63039 0.681222 4.22608 2.78737 5.03004 1.09321 5.7438 1.02487 3.36442 4.60195 3.07716 1.02482 0.580566 0.743865 5.63232 1.56586 1.38964 1.79278 0.756421 7.40304 1.17561 6.29619 4.92008 12.461 5.88293 1.14468 2.42529 3.37583 4.7929 0.729199 6.26914 6.94827 6.35886 2.18126 7.61129 3.79762 0.659131 7.22717 0.412269 6.5742 1.74018 5.29596 0.78637 1.55016 0.618367 1.89684 0.776752 7.04624 2.39498 1.89748 0.864921 5.03051 3.1375 2.39108 4.01356 1.08441 6.07735 4.69635 3.29333 1.46928 4.31154 1.1533 2.66822 4.35703 0.56038 1.95719 5.72559 4.50332 4.26456 1.57277 5.01121 0.645408 0.827148 2.71809 5.4058 4.36144 1.81031 4.88697 6.32563 4.89934 4.17928 7.40304 6.81092 1.61838 2.34145 3.84554 3.36348 7.27584 1.92592 1.7584 0.95879 3.3128 2.92201 5.3746 0.316892 3.93433 1.83051 6.78971 5.53405 1.86265 0.350452 3.15038 7.90323 9.0614 5.33126 1.85708 0.890912 5.17381 1.99628 3.24139 0.628906 2.59383 0.679643 4.88315 1.00857 2.03453 8.71552 0.483413 7.82589 2.09369 0.24685 1.95587 0.507179 8.11414 0.176045 6.26914 4.3983 0.827101 1.56586 7.81824 3.97253 7.57387 3.12575 4.90238 0.923935 0.257429 6.64632 2.35369 0.716994 0.906658 2.15125 5.24746 4.75183 6.46869 1.31087 2.01266 2.33081 1.61428 2.05084 7.04623 1.80075 6.6628 1.48354 5.24746 5.19912 6.69959 2.97553 1.96856 4.1241 3.51153 1.06242 5.76921 5.0985 0.628906 2.17468 4.86022 5.54393 3.80265 1.45489 4.01356 0.462434 0.631973 6.55544 7.22705 3.31567 3.41653 6.53453 2.06064 1.61608 1.59376 2.24273 2.23127 6.08038 2.30288 2.90661 4.60303 2.32658 5.64182 3.68412 4.85545 2.0757 8.18172 4.3983 0.729199 1.86218 4.19931 6.81651 2.96659 6.58656 0.733274 3.40744 1.7035 2.84594 0.650224 1.86265 1.05319 3.0031 1.84369 3.6021 5.78841 2.01521 4.51776 0.669421 3.66926 8.83996 1.90079 1.86503 5.86739 1.57105 4.61237 1.44658 0.459156 6.63892 1.41337 2.02862 1.57277 5.96 2.84307 5.53405 1.04536 4.13312 0.547465 0.480613 4.85785 3.61571 4.54619 6.28066 2.85604 0.597163 3.56059 4.88697 2.33558 4.69062 6.4766 1.02919 0.730623 3.30958 3.39426 1.83046 0.681222 1.93781 6.12188 3.01285 8.85806 2.09049 4.50568 4.39596 0.507327 4.98033 4.8957 2.7222 0.631565 2.86253 3.53343 2.30288 1.79142 5.94135 1.59419 0.807101 0.971357 4.35703 1.1248 0.69446 9.38211 1.16855 1.64522 0.777271 7.34168 0.397456 0.617141 2.43537 3.37786 0.652827 4.09209 0.455054 2.831 6.51893 0.36867 4.86659 6.10394 5.19697 5.95185 1.54264 2.70258 2.17468 8.71552 0.95951 0.457012 5.88293 3.01458 1.18975 0.809133 3.29368 0.835995 0.92461 0.325643 2.81952 2.27056 5.91323 3.52847 0.78637 2.4286 3.86448 0.488997 7.747 1.74018 0.995675 5.66865 3.93938 1.61838 0.181183 2.12326 3.03314 3.61125 1.7135 4.42955 1.87116 6.04004 1.47235 3.01501 6.08038 2.77392 5.17381 5.22014 3.29579 4.11407 5.94135 6.38519 5.68734 5.29423 1.04397 0.921344 2.03107 2.80852 5.22995 5.56887 2.78593 5.91323 3.3383 3.91679 3.26817 0.69446 7.07686 4.21611 2.12969 1.52728 7.22705 1.81998 0.977098 2.77965 3.68599 0.656801 2.26409 1.07442 1.22018 5.48132 1.64522 3.05812 6.14881 1.46928 8.45803 0.829752 12.461 0.546608 1.65799 6.4066 5.4272 0.420104 3.12575 0.350635 3.60912 2.11375 3.58591 0.819851 5.99551 0.697668 4.43318 6.4766 1.04197 6.48828 1.02392 0.455054 7.4914 4.32771 0.818479 5.25271 0.841394 2.32658 2.7959 4.24248 1.58753 6.51273 0.6901 8.06207 4.4545 0.729071 3.3383 2.27056 5.74434 1.17919 1.1365 1.24403 3.01285 6.89053 1.74656 4.5578 4.23124 0.781611 2.32997 0.430022 1.54022 2.43426 1.84653 1.36158 5.29423 1.47483 3.65873 6.33673 2.7222 6.85087 6.86146 5.98624 2.15293 5.0142 2.85368 2.35709 2.24273 1.73747 3.36442 9.03314 2.4113 6.32563 3.56059 0.815288 2.16358 0.651038 6.51093 1.96562 1.09284 6.34864 0.777271 8.45803 3.29333 3.54186 0.867456 6.28804 1.05786 8.11414 3.989 4.22608 1.83046 1.23173 2.7338 1.85708 3.46015 2.84354 8.83543 1.16742 4.46886 5.22995 2.12021 2.26119 0.799319 0.399863 6.91064 1.13406 0.221916 9.71065 0.861597 1.61428 2.45143 8.45744 2.96244 5.41112 6.13447 4.3396 1.02744 0.57283 3.39993 3.46015 5.33126 1.37333 3.83954 1.2032 10.8938 4.24899 0.894191 4.43105 0.319176 2.85998 0.52862 1.04197 4.69062 0.938941 4.04976 4.76816 3.77423 2.32997 7.39814 2.41529 0.995203 5.44883 0.97091 0.788445 6.28802 3.82061 0.92461 4.20014 2.42158 1.25106 1.36652 4.00135 4.8826 1.0404 0.350635 7.57387 0.607834 5.33723 3.12356 2.34229 0.77335 4.42209 0.659131 1.66779 1.17651 6.25148 2.36259 1.09284 5.7826 0.663272 1.51755 2.78593 2.51908 7.31664 6.13459 0.809133 0.905217 6.89053 0.507327 2.85553 1.81698 0.667994 5.29696 1.58232 1.06985 4.70143 1.42792 0.490135 2.85832 4.25915 3.84232 4.90147 1.37333 3.24139 4.37066 2.63581 1.39364 1.59376 8.02579 2.45379 0.399863 7.9355 1.73747 6.4066 4.47314 3.59963 0.412269 5.79942 2.92436 2.43537 3.3363 1.40572 0.36867 6.53535 2.25963 7.85509 2.81982 3.03551 2.39743 2.43426 5.80149 0.744208 3.2096 1.02919 3.72167 4.68589 5.38456 6.00865 2.51003 5.33723 2.68624 2.06389 7.06103 1.24158 7.61129 0.704573 0.466388 5.61574 1.97946 3.07716 1.72568 0.430231 4.46528 10.3384 0.79309 0.56986 1.84369 0.796837 10.8938 3.63641 4.68589 2.20899 1.76285 1.36652 3.97253 0.680753 0.582874 1.48524 0.424306 0.522687 6.95915 3.37545 0.457085 6.53905 1.22744 1.01306 3.59097 4.86022 1.18975 3.08545 11.1361 4.42955 1.65199 2.73806 1.22655 2.95465 4.2902 1.83051 6.00549 0.663272 2.47597 3.98196 1.7584 1.94632 0.781611 2.08106 1.87703 3.66926 3.1622 7.39814 3.0072 4.3396 2.36579 1.51344 1.26866 6.74779 4.1241 5.78369 5.78498 1.03538 1.39001 5.35343 0.606519 5.20671 0.439938 1.724 8.35496 1.69045 1.41194 1.42718 3.80421 2.93495 5.86739 3.84232 0.617422 0.239193 6.09299 1.24891 5.5577 3.40744 7.19275 5.5747 2.85606 2.5638 1.53659 1.88871 1.68198 3.5061 0.820256 6.64758 4.98033 5.64182 0.841394 3.41862 1.22744 1.71752 1.43885 6.18335 6.02586 1.02552 2.75122 1.31087 7.1138 2.89586 5.22764 0.997697 3.91269 1.58753 2.34695 2.85832 2.86339 0.651038 6.76947 1.22546 0.867456 5.62629 1.15965 0.928057 3.30128 5.33719 4.42752 1.32958 0.570517 4.89887 0.985538 6.64632 1.01115 6.00411 2.17687 5.74434 0.905217 2.77203 0.631565 5.98624 0.797164 3.94522 6.49117 5.4272 5.79942 1.89684 8.48498 1.7524 0.404892 3.65873 4.03486 1.19551 3.95327 6.67928 3.00923 6.64758 1.47278 2.08106 4.23124 1.29619 4.86005 5.13071 2.34145 3.93938 0.989604 0.818479 0.414027 2.12021 2.80852 6.01473 0.500838 6.93691 3.18689 0.506303 2.51552 8.65292 6.57517 1.9878 2.66314 5.96 4.26456 0.797486 1.02392 1.54385 1.0405 6.96715 1.66779 3.79762 1.24158 2.85085 3.02152 0.827101 6.81651 1.26482 0.886293 2.7959 4.60303 0.912564 1.38964 5.3683 5.20671 7.82198 3.78438 2.33563 5.41112 8.13059 4.50568 4.76268 4.89887 6.64695 3.43933 2.39736 2.51232 0.475576 5.95185 3.31473 3.22577 2.77203 1.58232 1.16121 2.90314 0.388731 5.19576 0.918619 0.980373 1.15812 3.04165 0.776752 1.84019 3.11797 6.75275 3.93433 2.05709 3.1025 1.53352 1.51755 6.00549 1.28218 2.75051 4.3224 1.62351 2.5194 6.58656 3.68456 2.75051 2.08306 1.95719 2.02862 4.99711 0.203355 4.55608 7.88038 0.696607 6.9893 0.319176 6.61774 0.99586 2.01266 2.75122 7.75315 5.78498 1.99549 0.374019 6.02845 4.96506 1.77946 1.32958 6.79882 0.766147 0.430022 0.97091 9.01989 0.783644 0.594739 4.28902 6.29839 6.86142 3.12356 2.51003 0.80926 1.59419 4.11407 4.62744 
</DataArray>