<VTKFile type="UnstructuredGrid" version="0.1">
<UnstructuredGrid>
<Piece  NumberOfPoints="    2443" NumberOfCells="     408">
<Points>
<DataArray type="Float64" NumberOfComponents="3" format="ascii">
-2.12503 -15.0531 0.0
-1.01893 -16.9063 0.0
1.54074 -16.2296 0.0
1.31005 -13.7856 0.0
-0.269724 -8.77163 0.0
-1.27746 -8.62959 0.0
-1.74922 -8.86201 0.0
-3.10036 -12.1202 0.0
33.4185 22.5635 0.0
33.6454 22.5477 0.0
37.146 27.8242 0.0
30.5271 27.3787 0.0
30.6216 26.7767 0.0
-20.3888 7.20414 0.0
-16.4191 12.6356 0.0
-20.965 14.4041 0.0
-9.67806 41.5169 0.0
-10.3111 39.494 0.0
-1.84452 40.6165 0.0
-2.03117 41.4781 0.0
-6.00167 43.7709 0.0
-6.41476 43.6123 0.0
-55.4786 -19.2453 0.0
-55.4797 -18.4864 0.0
-57.6416 -9.66015 0.0
-58.3573 -10.2591 0.0
-57.9324 -19.9398 0.0
-57.497 -20.6805 0.0
-55.8835 -20.4177 0.0
29.206 -47.7994 0.0
22.5776 -50.6202 0.0
21.3126 -55.245 0.0
23.6856 -54.8718 0.0
24.6145 -54.5642 0.0
30.6257 -48.5375 0.0
12.5833 -2.27571 0.0
11.4137 -5.34718 0.0
12.6925 -6.81118 0.0
21.2512 -3.77482 0.0
21.3864 -3.38379 0.0
21.3008 -2.13661 0.0
17.069 -2.15592 0.0
36.8927 -41.1963 0.0
34.3722 -39.623 0.0
29.6281 -46.1233 0.0
30.0035 -47.055 0.0
31.4232 -47.7932 0.0
32.7905 -47.7181 0.0
35.4838 -44.811 0.0
18.8953 -23.5645 0.0
19.1646 -24.293 0.0
25.3977 -26.1723 0.0
24.3546 -20.9118 0.0
21.5785 -21.1431 0.0
19.0013 -22.6697 0.0
-22.3514 -33.3183 0.0
-22.8914 -33.5341 0.0
-20.3321 -39.4213 0.0
-18.8078 -40.3139 0.0
-16.7987 -39.0926 0.0
-16.5021 -38.4965 0.0
-16.5124 -36.4722 0.0
-21.6635 -33.5011 0.0
9.23749 33.4117 0.0
12.2745 33.0337 0.0
13.5511 33.2233 0.0
14.1969 36.9965 0.0
10.9648 37.6038 0.0
7.3774 37.3312 0.0
7.09062 35.0815 0.0
7.53307 34.4373 0.0
0.351104 -33.5966 0.0
-0.264605 -35.073 0.0
6.09752 -39.4119 0.0
7.9164 -39.128 0.0
8.75911 -36.4833 0.0
5.42523 -33.9995 0.0
0.871285 -33.5726 0.0
-28.5894 54.9081 0.0
-32.1623 48.6898 0.0
-28.4835 49.0397 0.0
-25.4481 53.135 0.0
-25.6431 53.5273 0.0
-23.055 -32.6938 0.0
-23.1618 -29.9572 0.0
-29.2479 -27.7834 0.0
-29.6109 -28.9111 0.0
-29.9742 -30.6968 0.0
-26.7592 -32.9939 0.0
-23.5949 -32.9095 0.0
44.6321 -15.4232 0.0
42.5103 -15.2095 0.0
42.3042 -15.6134 0.0
43.5685 -22.146 0.0
44.3814 -22.8993 0.0
47.9956 -21.4598 0.0
49.1415 -20.0582 0.0
-53.6475 -11.3881 0.0
-51.821 -12.6704 0.0
-45.9001 -11.8388 0.0
-48.2291 -10.2322 0.0
-55.1193 -7.4916 0.0
-55.1386 -7.55624 0.0
-13.1501 35.4729 0.0
-16.9684 34.5173 0.0
-14.9987 29.335 0.0
-13.2375 30.4493 0.0
-12.8339 31.1717 0.0
38.2148 7.4164 0.0
43.7748 7.23847 0.0
47.8939 9.23418 0.0
47.6243 9.83766 0.0
41.8371 11.4033 0.0
41.5223 12.5137 0.0
42.0608 11.8064 0.0
47.8481 10.2407 0.0
47.2785 15.2831 0.0
45.7344 16.3894 0.0
34.0578 -39.4226 0.0
33.5023 -38.4423 0.0
32.9165 -38.629 0.0
27.9771 -41.0957 0.0
26.9501 -43.6773 0.0
27.4121 -44.2279 0.0
29.3136 -45.923 0.0
-47.732 -9.97744 0.0
-45.4029 -11.584 0.0
-44.5839 -11.9605 0.0
-43.4904 -7.15747 0.0
-44.2627 -5.83131 0.0
-49.3815 -4.82492 0.0
-10.4262 -7.53987 0.0
-7.60099 -7.28619 0.0
-5.43823 -6.77909 0.0
-10.9697 -1.41681 0.0
-11.3677 -1.34137 0.0
24.9285 27.9843 0.0
27.7847 29.8913 0.0
27.791 32.0222 0.0
27.2755 32.9002 0.0
23.4328 35.5202 0.0
23.0923 35.4298 0.0
-28.164 13.669 0.0
-26.7051 14.7245 0.0
-27.4448 21.2292 0.0
-31.967 20.4582 0.0
-12.4196 31.3427 0.0
-9.38137 32.507 0.0
-7.12498 36.8225 0.0
-12.1939 36.1641 0.0
-12.7359 35.644 0.0
22.6564 -5.12759 0.0
22.6398 -5.31201 0.0
25.7043 -9.13211 0.0
33.3799 -9.01622 0.0
34.6578 -8.14469 0.0
-37.9282 0.141586 0.0
-35.4004 -0.628282 0.0
-33.6417 3.16246 0.0
-37.62 6.84254 0.0
-39.5403 8.59927 0.0
-0.173413 21.1514 0.0
-2.59275 15.2637 0.0
-2.23837 13.6558 0.0
1.0286 15.1718 0.0
3.53545 17.3348 0.0
-28.035 48.9388 0.0
-28.1875 48.2876 0.0
-23.5818 48.5823 0.0
-20.2915 51.2702 0.0
-20.3305 52.2466 0.0
-24.9996 53.0342 0.0
61.8531 4.74895 0.0
61.7503 5.04592 0.0
56.3741 0.610634 0.0
56.4168 -4.89644 0.0
60.2431 -1.7515 0.0
4.72876 39.9913 0.0
5.29884 39.9167 0.0
5.93631 41.4712 0.0
7.97996 46.8957 0.0
3.88032 50.9989 0.0
2.98152 47.9941 0.0
-38.3176 37.2531 0.0
-36.3699 37.553 0.0
-34.8606 40.6567 0.0
-35.7033 43.9404 0.0
-36.2661 44.1147 0.0
-40.1079 41.5336 0.0
24.4406 47.1006 0.0
24.7232 49.5132 0.0
19.9664 54.9295 0.0
18.6602 53.8439 0.0
18.5092 53.478 0.0
19.5359 49.0339 0.0
0.273267 -42.8807 0.0
-0.549129 -42.4143 0.0
-2.14853 -42.9765 0.0
-3.8856 -45.5961 0.0
-3.25505 -49.22 0.0
-0.0966881 -49.5323 0.0
25.8616 -31.9176 0.0
32.9459 -28.3591 0.0
33.3568 -25.548 0.0
26.8628 -26.9643 0.0
26.467 -27.1545 0.0
24.3523 -30.2659 0.0
25.6377 -31.8486 0.0
25.8161 -31.9101 0.0
-27.9555 -11.9864 0.0
-28.019 -12.3315 0.0
-26.9734 -14.0878 0.0
-23.4523 -14.0933 0.0
-20.5754 -13.4539 0.0
-20.7747 -10.6353 0.0
1.52979 33.8033 0.0
4.13454 33.3756 0.0
6.45381 35.1481 0.0
6.74059 37.3978 0.0
6.60614 37.683 0.0
5.21137 38.9502 0.0
4.64128 39.0248 0.0
3.6121 38.8443 0.0
51.5856 -27.7199 0.0
51.9466 -26.4094 0.0
48.308 -22.0155 0.0
44.6938 -23.4551 0.0
44.5074 -24.3789 0.0
55.4325 1.67928 0.0
55.0832 6.75236 0.0
54.7525 6.74794 0.0
51.8626 6.02056 0.0
51.425 -2.43525 0.0
-16.9558 56.0797 0.0
-19.125 52.9584 0.0
-10.417 53.4408 0.0
-10.0942 54.3561 0.0
57.8405 -10.9373 0.0
56.6637 -10.7806 0.0
55.6613 -18.688 0.0
57.0585 -19.5069 0.0
58.2782 -18.7775 0.0
59.3328 -12.5845 0.0
59.1146 -11.9203 0.0
30.6627 -17.7835 0.0
31.4654 -18.2266 0.0
41.4141 -13.3671 0.0
41.405 -12.9293 0.0
41.1819 -11.1296 0.0
40.4981 -10.9757 0.0
36.5116 -13.5202 0.0
-28.0236 43.2956 0.0
-29.376 41.9381 0.0
-28.9546 41.027 0.0
-25.1086 39.6095 0.0
-24.0351 40.2634 0.0
-23.6731 40.668 0.0
-21.9851 44.7821 0.0
1.86048 53.5842 0.0
2.36857 53.4878 0.0
3.37409 60.2027 0.0
2.15049 61.2085 0.0
1.66142 61.2907 0.0
-0.436343 56.5196 0.0
-48.6642 -31.9594 0.0
-45.4913 -34.4303 0.0
-43.4728 -33.8508 0.0
-42.5624 -33.3994 0.0
-42.9743 -31.0474 0.0
-44.023 -29.4488 0.0
47.9086 3.13364 0.0
47.6519 1.39297 0.0
49.7179 -5.12796 0.0
50.4562 -4.84811 0.0
51.0721 -2.59932 0.0
51.5098 5.85649 0.0
49.6479 6.53004 0.0
28.378 -18.6602 0.0
24.9142 -20.7607 0.0
25.9573 -26.0212 0.0
26.3854 -26.4856 0.0
26.7812 -26.2955 0.0
32.0567 -20.1472 0.0
30.567 -18.9677 0.0
29.7643 -18.5247 0.0
-21.1866 -7.5257 0.0
-21.1578 -7.15959 0.0
-28.3073 -4.37757 0.0
-29.7495 -4.89592 0.0
-28.0597 -8.87143 0.0
18.0489 53.3379 0.0
16.3997 52.8917 0.0
14.2675 46.6169 0.0
14.3677 46.5287 0.0
15.4275 45.9736 0.0
17.3617 46.4551 0.0
19.0756 48.8938 0.0
35.8998 -45.078 0.0
33.2065 -47.9851 0.0
34.3081 -49.041 0.0
34.6225 -49.0626 0.0
39.3085 -47.8692 0.0
42.4422 -45.1429 0.0
42.6877 -44.747 0.0
1.82749 -14.4226 0.0
2.05818 -16.8665 0.0
4.4756 -24.3026 0.0
6.41562 -22.3677 0.0
6.64995 -18.1263 0.0
12.4929 -8.99963 0.0
11.4935 -12.7382 0.0
14.0696 -14.4378 0.0
15.1606 -14.5225 0.0
17.9107 -9.6593 0.0
-20.8874 -2.65621 0.0
-22.2609 2.35835 0.0
-27.5951 1.06174 0.0
-25.607 -2.22362 0.0
-21.3668 -33.0894 0.0
-16.2157 -36.0605 0.0
-13.1723 -33.3401 0.0
-13.2535 -30.6324 0.0
-15.0668 -29.6181 0.0
9.97662 -21.7338 0.0
13.2356 -22.1234 0.0
17.0304 -21.3733 0.0
16.4885 -17.7772 0.0
15.971 -16.1054 0.0
15.1246 -15.294 0.0
14.0335 -15.2093 0.0
12.4311 -17.786 0.0
-1.79372 33.9455 0.0
1.12483 33.8286 0.0
3.20714 38.8696 0.0
-0.607271 38.5739 0.0
-1.16222 37.8481 0.0
-2.36094 34.6277 0.0
-15.6355 -10.3453 0.0
-15.8183 -5.70197 0.0
-15.8824 -4.72211 0.0
-16.2383 -4.15021 0.0
-19.4958 -4.05056 0.0
-20.317 -7.16581 0.0
-20.3458 -7.53192 0.0
-20.1657 -8.09274 0.0
-21.4823 -51.8331 0.0
-22.0544 -51.4474 0.0
-26.271 -54.8736 0.0
-22.5491 -57.696 0.0
-21.1167 -55.5615 0.0
17.0531 -17.779 0.0
17.595 -21.3751 0.0
18.73 -22.2578 0.0
21.3072 -20.7312 0.0
22.8843 -16.6796 0.0
55.8919 0.262119 0.0
55.4952 1.04775 0.0
51.4877 -3.06678 0.0
50.8718 -5.31557 0.0
55.0469 -7.08226 0.0
55.9346 -5.24495 0.0
34.7227 21.6611 0.0
34.098 21.6284 0.0
35.1121 13.4823 0.0
37.1476 14.1149 0.0
39.2107 17.3469 0.0
38.0992 18.4952 0.0
-0.764819 -17.7198 0.0
1.88601 -25.074 0.0
4.06115 -24.8619 0.0
4.21227 -24.4791 0.0
1.79485 -17.043 0.0
-15.8086 -38.5585 0.0
-9.56883 -41.4066 0.0
-10.0115 -36.4845 0.0
-11.1767 -34.8758 0.0
-12.7755 -33.8139 0.0
-15.819 -36.5343 0.0
-21.2279 34.2444 0.0
-19.7711 34.7017 0.0
-17.6861 41.5047 0.0
-23.1736 40.2819 0.0
-23.5355 39.8772 0.0
0.793969 -33.0427 0.0
5.34791 -33.4697 0.0
5.41555 -30.4324 0.0
5.3768 -27.2465 0.0
4.86895 -26.7296 0.0
-42.3704 -2.23379 0.0
-42.3574 -2.57451 0.0
-36.7436 -5.85774 0.0
-35.4376 -2.85049 0.0
-35.244 -1.84537 0.0
-35.5805 -1.219 0.0
-38.1084 -0.449132 0.0
-41.6217 -0.493337 0.0
-5.93123 1.85124 0.0
-8.42483 0.0986915 0.0
-2.2001 -6.14661 0.0
-3.64421 -0.421027 0.0
-3.99534 0.414734 0.0
34.8548 0.434281 0.0
36.8459 2.16971 0.0
36.1691 6.53594 0.0
34.9694 7.19346 0.0
32.644 5.36684 0.0
-11.5091 -45.3723 0.0
-10.9536 -45.7452 0.0
-6.49212 -44.5447 0.0
-9.45197 -41.9305 0.0
-15.6918 -39.0824 0.0
-15.9885 -39.6786 0.0
-39.6285 9.22666 0.0
-37.7081 7.46993 0.0
-33.3823 8.42026 0.0
-36.4686 10.3327 0.0
-40.4242 12.5393 0.0
-40.3549 10.3456 0.0
-0.992373 7.32036 0.0
-0.97308 8.24778 0.0
-3.48551 10.9622 0.0
-7.232 8.85403 0.0
-7.16607 7.77832 0.0
-6.22017 5.29237 0.0
-22.553 2.78155 0.0
-22.4646 3.38081 0.0
-22.8577 4.04396 0.0
-24.284 5.03441 0.0
-29.4878 6.70675 0.0
-29.8238 6.37826 0.0
-30.5929 4.44877 0.0
-29.0773 2.39998 0.0
-27.8872 1.48494 0.0
-43.9403 5.03958 0.0
-45.7667 5.56824 0.0
-49.9534 2.27084 0.0
-42.7292 0.563021 0.0
-29.5067 -41.3798 0.0
-29.2629 -40.6919 0.0
-32.7798 -31.8756 0.0
-33.0496 -31.8662 0.0
-36.0352 -35.8723 0.0
-31.3518 -40.4597 0.0
-19.1103 52.7052 0.0
-19.3844 52.3592 0.0
-19.3454 51.3828 0.0
-18.9497 50.9044 0.0
-12.7117 50.031 0.0
-10.9283 51.0326 0.0
-10.4023 53.1876 0.0
-22.3636 -32.5435 0.0
-21.6756 -32.7263 0.0
-15.3756 -29.2551 0.0
-18.604 -25.8136 0.0
-21.1858 -26.7174 0.0
-22.4704 -29.807 0.0
16.9063 13.2786 0.0
16.9842 11.2224 0.0
18.5909 9.78533 0.0
23.3827 19.6498 0.0
23.1452 19.9667 0.0
21.7999 21.3331 0.0
21.3815 21.2842 0.0
10.0884 -43.6518 0.0
10.4169 -43.8969 0.0
13.8515 -39.1797 0.0
13.8516 -38.6978 0.0
12.0118 -35.0482 0.0
[...]
<CellData Scalars="cell variable 4" Vectors="cell vector">
<DataArray type="Float64" NumberOfComponents="3" Name="cell vector" format="ascii">
0 0 0
0 0 0
0 0 0
0 0 0
0 0 0
0 0 0
0 0 0
0 0 0
0 0 0
0 0 0
0 0 0
0 0 0
0 0 0
0 0 0
0 0 0
0 0 0
0 0 0
0 0 0
0 0 0
0 0 0
0 0 0
0 0 0
0 0 0
0 0 0
0 0 0
0 0 0
0 0 0
0 0 0
0 0 0
0 0 0
0 0 0
0 0 0
0 0 0
0 0 0
0 0 0
0 0 0
0 0 0
0 0 0
0 0 0
0 0 0
0 0 0
0 0 0
0 0 0
0 0 0
0 0 0
0 0 0
0 0 0
0 0 0
0 0 0
0 0 0
0 0 0
0 0 0
0 0 0
0 0 0
0 0 0
0 0 0
0 0 0
0 0 0
0 0 0
0 0 0
0 0 0
0 0 0
0 0 0
0 0 0
0 0 0
0 0 0
0 0 0
0 0 0
0 0 0
0 0 0
0 0 0
0 0 0
0 0 0
0 0 0
0 0 0
0 0 0
0 0 0
0 0 0
0 0 0
0 0 0
0 0 0
0 0 0
0 0 0
0 0 0
0 0 0
0 0 0
0 0 0
0 0 0
0 0 0
0 0 0
0 0 0
0 0 0
0 0 0
0 0 0
0 0 0
0 0 0
0 0 0
0 0 0
0 0 0
0 0 0
0 0 0
0 0 0
0 0 0
0 0 0
0 0 0
0 0 0
0 0 0
0 0 0
0 0 0
0 0 0
0 0 0
0 0 0
0 0 0
0 0 0
0 0 0
0 0 0
0 0 0
0 0 0
0 0 0
0 0 0
0 0 0
0 0 0
0 0 0
0 0 0
0 0 0
0 0 0
0 0 0
0 0 0
0 0 0
0 0 0
0 0 0
0 0 0
0 0 0
0 0 0
0 0 0
0 0 0
0 0 0
0 0 0
0 0 0
0 0 0
0 0 0
0 0 0
0 0 0
0 0 0
0 0 0
0 0 0
0 0 0
0 0 0
0 0 0
0 0 0
0 0 0
0 0 0
0 0 0
0 0 0
0 0 0
0 0 0
0 0 0
0 0 0
0 0 0
0 0 0
0 0 0
0 0 0
0 0 0
0 0 0
0 0 0
0 0 0
0 0 0
0 0 0
0 0 0
0 0 0
0 0 0
0 0 0
0 0 0
0 0 0
0 0 0
0 0 0
0 0 0
0 0 0
0 0 0
0 0 0
0 0 0
0 0 0
0 0 0
0 0 0
0 0 0
0 0 0
0 0 0
0 0 0
0 0 0
0 0 0
0 0 0
0 0 0
0 0 0
0 0 0
0 0 0
0 0 0
0 0 0
0 0 0
0 0 0
0 0 0
0 0 0
0 0 0
0 0 0
0 0 0
0 0 0
0 0 0
0 0 0
0 0 0
0 0 0
0 0 0
0 0 0
0 0 0
0 0 0
0 0 0
0 0 0
0 0 0
0 0 0
0 0 0
0 0 0
0 0 0
0 0 0
0 0 0
0 0 0
0 0 0
0 0 0
0 0 0
0 0 0
0 0 0
0 0 0
0 0 0
0 0 0
0 0 0
0 0 0
0 0 0
0 0 0
0 0 0
0 0 0
0 0 0
0 0 0
0 0 0
0 0 0
0 0 0
0 0 0
0 0 0
0 0 0
0 0 0
0 0 0
0 0 0
0 0 0
0 0 0
0 0 0
0 0 0
0 0 0
0 0 0
0 0 0
0 0 0
0 0 0
0 0 0
0 0 0
0 0 0
0 0 0
0 0 0
0 0 0
0 0 0
0 0 0
0 0 0
0 0 0
0 0 0
0 0 0
0 0 0
0 0 0
0 0 0
0 0 0
0 0 0
0 0 0
0 0 0
0 0 0
0 0 0
0 0 0
0 0 0
0 0 0
0 0 0
0 0 0
0 0 0
0 0 0
0 0 0
0 0 0
0 0 0
0 0 0
0 0 0
0 0 0
0 0 0
0 0 0
0 0 0
0 0 0
0 0 0
0 0 0
0 0 0
0 0 0
0 0 0
0 0 0
0 0 0
0 0 0
0 0 0
0 0 0
0 0 0
0 0 0
0 0 0
0 0 0
0 0 0
0 0 0
0 0 0
0 0 0
0 0 0
0 0 0
0 0 0
0 0 0
0 0 0
0 0 0
0 0 0
0 0 0
0 0 0
0 0 0
0 0 0
0 0 0
0 0 0
0 0 0
0 0 0
0 0 0
0 0 0
0 0 0
0 0 0
0 0 0
0 0 0
0 0 0
0 0 0
0 0 0
0 0 0
0 0 0
0 0 0
0 0 0
0 0 0
0 0 0
0 0 0
0 0 0
0 0 0
0 0 0
0 0 0
0 0 0
0 0 0
0 0 0
0 0 0
0 0 0
0 0 0
0 0 0
0 0 0
0 0 0
0 0 0
0 0 0
0 0 0
0 0 0
0 0 0
0 0 0
0 0 0
0 0 0
0 0 0
0 0 0
0 0 0
0 0 0
0 0 0
0 0 0
0 0 0
0 0 0
0 0 0
0 0 0
0 0 0
0 0 0
0 0 0
0 0 0
0 0 0
0 0 0
0 0 0
0 0 0
0 0 0
0 0 0
0 0 0
0 0 0
0 0 0
0 0 0
0 0 0
0 0 0
0 0 0
0 0 0
0 0 0
0 0 0
0 0 0
0 0 0
0 0 0
0 0 0
0 0 0
0 0 0
0 0 0
0 0 0
0 0 0
0 0 0
0 0 0
0 0 0
0 0 0
</DataArray>
<DataArray type="Float64" Name="cell vector length" format="ascii">
0 0 0 0 0 0 0 0 0 0 0 0 0 0 0 0 0 0 0 0 0 0 0 0 0 0 0 0 0 0 0 0 0 0 0 0 0 0 0 0 0 0 0 0 0 0 0 0 0 0 0 0 0 0 0 0 0 0 0 0 0 0 0 0 0 0 0 0 0 0 0 0 0 0 0 0 0 0 0 0 0 0 0 0 0 0 0 0 0 0 0 0 0 0 0 0 0 0 0 0 0 0 0 0 0 0 0 0 0 0 0 0 0 0 0 0 0 0 0 0 0 0 0 0 0 0 0 0 0 0 0 0 0 0 0 0 0 0 0 0 0 0 0 0 0 0 0 0 0 0 0 0 0 0 0 0 0 0 0 0 0 0 0 0 0 0 0 0 0 0 0 0 0 0 0 0 0 0 0 0 0 0 0 0 0 0 0 0 0 0 0 0 0 0 0 0 0 0 0 0 0 0 0 0 0 0 0 0 0 0 0 0 0 0 0 0 0 0 0 0 0 0 0 0 0 0 0 0 0 0 0 0 0 0 0 0 0 0 0 0 0 0 0 0 0 0 0 0 0 0 0 0 0 0 0 0 0 0 0 0 0 0 0 0 0 0 0 0 0 0 0 0 0 0 0 0 0 0 0 0 0 0 0 0 0 0 0 0 0 0 0 0 0 0 0 0 0 0 0 0 0 0 0 0 0 0 0 0 0 0 0 0 0 0 0 0 0 0 0 0 0 0 0 0 0 0 0 0 0 0 0 0 0 0 0 0 0 0 0 0 0 0 0 0 0 0 0 0 0 0 0 0 0 0 0 0 0 0 0 0 0 0 0 0 0 0 0 0 0 0 0 0 0 0 0 0 0 0 0 0 0 0 0 0 0 0 0 0 0 0 0 0 0 0 0 0 0 0 0 0 0 0 0 0 0 0 0 0 
</DataArray>
<DataArray type="Float64" Name="cell variable 4" format="ascii">
1.11547 1.06245 1.12037 1.07467 0.919422 0.94865 1.11547 0.94865 1.11547 0.90618 1.14226 1.04461 0.99432 1.04461 0.912892 0.919422 1.07467 1.10185 1.10185 0.94865 0.919422 1.12037 1.06245 1.00681 1.07467 1.10185 1.00681 1.14226 0.99432 0.912892 0.980966 0.99432 0.980966 1.04461 1.11547 1.12037 1.07467 0.912892 0.912892 0.763876 0.912892 1.11547 0.99432 0.980966 0.919422 1.10185 1.11547 1.12037 0.980966 0.657465 1.11547 1.11547 1.12037 1.04461 1.11547 1.07467 1.12037 0.90618 1.11547 0.912892 1.10185 1.11547 1.04461 1.07467 1.04461 0.919422 1.12037 1.10185 1.04461 1.00681 1.12037 1.12037 1.00681 0.90618 0.763876 1.04461 1.14226 0.94865 1.00681 1.11547 1.04461 0.919422 1.11547 0.848855 1.11547 1.11547 1.04461 1.10185 1.14226 1.07467 0.94865 0.980966 0.8063 0.657465 0.980966 0.980966 1.00681 0.919422 1.12037 1.11547 1.04461 1.04461 0.919422 0.94865 1.06245 0.919422 0.99432 1.12037 1.04461 0.912892 0.763876 1.00681 1.10185 0.848855 1.00681 1.14226 1.14226 1.07467 1.11547 1.14226 1.14226 1.07467 1.00681 0.94865 1.06245 0.657465 0.789941 1.07467 0.99432 1.04461 1.11547 1.11547 1.00681 1.07467 1.06245 1.06245 1.06245 0.99432 1.04461 0.919422 0.90618 1.00681 1.12037 0.763876 0.90618 0.99432 1.07467 1.07467 0.980966 0.848855 1.04461 1.14226 0.919422 0.919422 1.00681 0.8063 1.10185 1.12037 1.12037 1.04461 1.07467 0.94865 1.04461 1.06245 1.00681 1.14226 1.04461 1.11547 1.11547 1.10185 1.10185 0.919422 1.12037 0.919422 0.848855 0.94865 1.00681 1.00681 1.12037 0.919422 1.12037 1.00681 1.00681 1.11547 1.00681 0.980966 1.06245 1.11547 1.04461 1.06245 1.07467 0.980966 1.07467 0.90618 0.980966 0.789941 0.94865 0.94865 0.8063 0.848855 0.94865 0.90618 1.11547 0.912892 1.12037 1.04461 0.94865 1.04461 1.04461 0.980966 1.07467 1.10185 1.07467 1.06245 0.980966 1.10185 0.94865 1.12037 1.07467 1.07467 1.04461 1.04461 0.980966 1.10185 1.04461 1.06245 1.11547 1.10185 0.912892 0.919422 1.07467 0.90618 0.848855 1.10185 1.04461 0.919422 1.10185 1.10185 0.980966 0.919422 1.10185 0.94865 0.919422 1.11547 0.94865 1.04461 0.90618 1.06245 1.07467 1.07467 1.10185 0.848855 0.980966 1.14226 0.919422 1.12037 1.10185 0.99432 1.06245 1.14226 1.11547 1.14226 1.06245 0.919422 0.94865 1.14226 1.14226 0.912892 0.919422 0.919422 1.11547 0.8063 1.12037 1.04461 1.14226 1.11547 1.00681 0.848855 0.94865 1.11547 1.00681 1.06245 1.10185 1.04461 1.14226 0.912892 1.12037 1.14226 1.10185 1.00681 1.11547 1.14226 0.94865 0.90618 0.980966 1.07467 1.00681 1.12037 1.06245 1.00681 0.919422 1.10185 1.12037 1.10185 0.912892 1.00681 1.11547 1.07467 0.94865 1.06245 0.90618 0.919422 1.12037 1.07467 0.912892 1.07467 1.10185 1.11547 0.980966 1.10185 1.11547 1.12037 1.10185 0.980966 0.919422 0.848855 1.07467 1.14226 1.07467 1.00681 1.04461 1.14226 1.14226 1.11547 0.919422 0.980966 0.90618 0.980966 1.04461 0.919422 0.90618 0.919422 1.00681 0.94865 0.99432 1.06245 0.8063 1.11547 0.99432 1.12037 0.90618 1.12037 1.07467 1.12037 1.00681 0.919422 1.00681 0.90618 0.8063 1.14226 1.12037 1.07467 0.980966 0.94865 0.919422 1.14226 0.980966 1.06245 0.789941 1.11547 0.980966 1.12037 1.00681 1.10185 0.90618 1.04461 1.12037 0.919422 1.10185 1.07467 1.10185 1.11547 1.06245 1.00681 0.912892 0.919422 1.04461 0.90618 1.14226 0.912892 1.07467 1.04461 0.90618 1.07467 1.04461 1.11547 1.00681 1.11547 1.00681 1.04461 0.94865 1.00681 0.90618 0.980966 1.00681 0.919422 1.00681 1.11547 
</DataArray>
<DataArray type="Float64" Name="cell variable 5" format="ascii">
0.00797274 0.00878122 0.00790366 0.00858434 0.0116913 0.0109898 0.00797274 0.0109898 0.00797274 0.0120314 0.00760594 0.00908091 0.0100133 0.00908091 0.0118572 0.0116913 0.00858434 0.00816951 0.00816951 0.0109898 0.0116913 0.00790366 0.00878122 0.00976872 0.00858434 0.00816951 0.00976872 0.00760594 0.0100133 0.0118572 0.0102849 0.0100133 0.0102849 0.00908091 0.00797274 0.00790366 0.00858434 0.0118572 0.0118572 0.016849 0.0118572 0.00797274 0.0100133 0.0102849 0.0116913 0.00816951 0.00797274 0.00790366 0.0102849 0.0226112 0.00797274 0.00797274 0.00790366 0.00908091 0.00797274 0.00858434 0.00790366 0.0120314 0.00797274 0.0118572 0.00816951 0.00797274 0.00908091 0.00858434 0.00908091 0.0116913 0.00790366 0.00816951 0.00908091 0.00976872 0.00790366 0.00790366 0.00976872 0.0120314 0.016849 0.00908091 0.00760594 0.0109898 0.00976872 0.00797274 0.00908091 0.0116913 0.00797274 0.0136882 0.00797274 0.00797274 0.00908091 0.00816951 0.00760594 0.00858434 0.0109898 0.0102849 0.0151488 0.0226112 0.0102849 0.0102849 0.00976872 0.0116913 0.00790366 0.00797274 0.00908091 0.00908091 0.0116913 0.0109898 0.00878122 0.0116913 0.0100133 0.00790366 0.00908091 0.0118572 0.016849 0.00976872 0.00816951 0.0136882 0.00976872 0.00760594 0.00760594 0.00858434 0.00797274 0.00760594 0.00760594 0.00858434 0.00976872 0.0109898 0.00878122 0.0226112 0.0157727 0.00858434 0.0100133 0.00908091 0.00797274 0.00797274 0.00976872 0.00858434 0.00878122 0.00878122 0.00878122 0.0100133 0.00908091 0.0116913 0.0120314 0.00976872 0.00790366 0.016849 0.0120314 0.0100133 0.00858434 0.00858434 0.0102849 0.0136882 0.00908091 0.00760594 0.0116913 0.0116913 0.00976872 0.0151488 0.00816951 0.00790366 0.00790366 0.00908091 0.00858434 0.0109898 0.00908091 0.00878122 0.00976872 0.00760594 0.00908091 0.00797274 0.00797274 0.00816951 0.00816951 0.0116913 0.00790366 0.0116913 0.0136882 0.0109898 0.00976872 0.00976872 0.00790366 0.0116913 0.00790366 0.00976872 0.00976872 0.00797274 0.00976872 0.0102849 0.00878122 0.00797274 0.00908091 0.00878122 0.00858434 0.0102849 0.00858434 0.0120314 0.0102849 0.0157727 0.0109898 0.0109898 0.0151488 0.0136882 0.0109898 0.0120314 0.00797274 0.0118572 0.00790366 0.00908091 0.0109898 0.00908091 0.00908091 0.0102849 0.00858434 0.00816951 0.00858434 0.00878122 0.0102849 0.00816951 0.0109898 0.00790366 0.00858434 0.00858434 0.00908091 0.00908091 0.0102849 0.00816951 0.00908091 0.00878122 0.00797274 0.00816951 0.0118572 0.0116913 0.00858434 0.0120314 0.0136882 0.00816951 0.00908091 0.0116913 0.00816951 0.00816951 0.0102849 0.0116913 0.00816951 0.0109898 0.0116913 0.00797274 0.0109898 0.00908091 0.0120314 0.00878122 0.00858434 0.00858434 0.00816951 0.0136882 0.0102849 0.00760594 0.0116913 0.00790366 0.00816951 0.0100133 0.00878122 0.00760594 0.00797274 0.00760594 0.00878122 0.0116913 0.0109898 0.00760594 0.00760594 0.0118572 0.0116913 0.0116913 0.00797274 0.0151488 0.00790366 0.00908091 0.00760594 0.00797274 0.00976872 0.0136882 0.0109898 0.00797274 0.00976872 0.00878122 0.00816951 0.00908091 0.00760594 0.0118572 0.00790366 0.00760594 0.00816951 0.00976872 0.00797274 0.00760594 0.0109898 0.0120314 0.0102849 0.00858434 0.00976872 0.00790366 0.00878122 0.00976872 0.0116913 0.00816951 0.00790366 0.00816951 0.0118572 0.00976872 0.00797274 0.00858434 0.0109898 0.00878122 0.0120314 0.0116913 0.00790366 0.00858434 0.0118572 0.00858434 0.00816951 0.00797274 0.0102849 0.00816951 0.00797274 0.00790366 0.00816951 0.0102849 0.0116913 0.0136882 0.00858434 0.00760594 0.00858434 0.00976872 0.00908091 0.00760594 0.00760594 0.00797274 0.0116913 0.0102849 0.0120314 0.0102849 0.00908091 0.0116913 0.0120314 0.0116913 0.00976872 0.0109898 0.0100133 0.00878122 0.0151488 0.00797274 0.0100133 0.00790366 0.0120314 0.00790366 0.00858434 0.00790366 0.00976872 0.0116913 0.00976872 0.0120314 0.0151488 0.00760594 0.00790366 0.00858434 0.0102849 0.0109898 0.0116913 0.00760594 0.0102849 0.00878122 0.0157727 0.00797274 0.0102849 0.00790366 0.00976872 0.00816951 0.0120314 0.00908091 0.00790366 0.0116913 0.00816951 0.00858434 0.00816951 0.00797274 0.00878122 0.00976872 0.0118572 0.0116913 0.00908091 0.0120314 0.00760594 0.0118572 0.00858434 0.00908091 0.0120314 0.00858434 0.00908091 0.00797274 0.00976872 0.00797274 0.00976872 0.00908091 0.0109898 0.00976872 0.0120314 0.0102849 0.00976872 0.0116913 0.00976872 0.00797274 
</DataArray>
<DataArray type="Float64" Name="cell variable 6" format="ascii">
4.32387e-06 5.74138e-06 4.21468e-06 5.3719e-06 1.32528e-05 1.10661e-05 4.32387e-06 1.10661e-05 4.32387e-06 1.4406e-05 3.76475e-06 6.33494e-06 8.43313e-06 6.33494e-06 1.38076e-05 1.32528e-05 5.3719e-06 4.64493e-06 4.64493e-06 1.10661e-05 1.32528e-05 4.21468e-06 5.74138e-06 7.8448e-06 5.3719e-06 4.64493e-06 7.8448e-06 3.76475e-06 8.43313e-06 1.38076e-05 9.11938e-06 8.43313e-06 9.11938e-06 6.33494e-06 4.32387e-06 4.21468e-06 5.3719e-06 1.38076e-05 1.38076e-05 3.81646e-05 1.38076e-05 4.32387e-06 8.43313e-06 9.11938e-06 1.32528e-05 4.64493e-06 4.32387e-06 4.21468e-06 9.11938e-06 8.84138e-05 4.32387e-06 4.32387e-06 4.21468e-06 6.33494e-06 4.32387e-06 5.3719e-06 4.21468e-06 1.4406e-05 4.32387e-06 1.38076e-05 4.64493e-06 4.32387e-06 6.33494e-06 5.3719e-06 6.33494e-06 1.32528e-05 4.21468e-06 4.64493e-06 6.33494e-06 7.8448e-06 4.21468e-06 4.21468e-06 7.8448e-06 1.4406e-05 3.81646e-05 6.33494e-06 3.76475e-06 1.10661e-05 7.8448e-06 4.32387e-06 6.33494e-06 1.32528e-05 4.32387e-06 2.09522e-05 4.32387e-06 4.32387e-06 6.33494e-06 4.64493e-06 3.76475e-06 5.3719e-06 1.10661e-05 9.11938e-06 2.80904e-05 8.84138e-05 9.11938e-06 9.11938e-06 7.8448e-06 1.32528e-05 4.21468e-06 4.32387e-06 6.33494e-06 6.33494e-06 1.32528e-05 1.10661e-05 5.74138e-06 1.32528e-05 8.43313e-06 4.21468e-06 6.33494e-06 1.38076e-05 3.81646e-05 7.8448e-06 4.64493e-06 2.09522e-05 7.8448e-06 3.76475e-06 3.76475e-06 5.3719e-06 4.32387e-06 3.76475e-06 3.76475e-06 5.3719e-06 7.8448e-06 1.10661e-05 5.74138e-06 8.84138e-05 3.156e-05 5.3719e-06 8.43313e-06 6.33494e-06 4.32387e-06 4.32387e-06 7.8448e-06 5.3719e-06 5.74138e-06 5.74138e-06 5.74138e-06 8.43313e-06 6.33494e-06 1.32528e-05 1.4406e-05 7.8448e-06 4.21468e-06 3.81646e-05 1.4406e-05 8.43313e-06 5.3719e-06 5.3719e-06 9.11938e-06 2.09522e-05 6.33494e-06 3.76475e-06 1.32528e-05 1.32528e-05 7.8448e-06 2.80904e-05 4.64493e-06 4.21468e-06 4.21468e-06 6.33494e-06 5.3719e-06 1.10661e-05 6.33494e-06 5.74138e-06 7.8448e-06 3.76475e-06 6.33494e-06 4.32387e-06 4.32387e-06 4.64493e-06 4.64493e-06 1.32528e-05 4.21468e-06 1.32528e-05 2.09522e-05 1.10661e-05 7.8448e-06 7.8448e-06 4.21468e-06 1.32528e-05 4.21468e-06 7.8448e-06 7.8448e-06 4.32387e-06 7.8448e-06 9.11938e-06 5.74138e-06 4.32387e-06 6.33494e-06 5.74138e-06 5.3719e-06 9.11938e-06 5.3719e-06 1.4406e-05 9.11938e-06 3.156e-05 1.10661e-05 1.10661e-05 2.80904e-05 2.09522e-05 1.10661e-05 1.4406e-05 4.32387e-06 1.38076e-05 4.21468e-06 6.33494e-06 1.10661e-05 6.33494e-06 6.33494e-06 9.11938e-06 5.3719e-06 4.64493e-06 5.3719e-06 5.74138e-06 9.11938e-06 4.64493e-06 1.10661e-05 4.21468e-06 5.3719e-06 5.3719e-06 6.33494e-06 6.33494e-06 9.11938e-06 4.64493e-06 6.33494e-06 5.74138e-06 4.32387e-06 4.64493e-06 1.38076e-05 1.32528e-05 5.3719e-06 1.4406e-05 2.09522e-05 4.64493e-06 6.33494e-06 1.32528e-05 4.64493e-06 4.64493e-06 9.11938e-06 1.32528e-05 4.64493e-06 1.10661e-05 1.32528e-05 4.32387e-06 1.10661e-05 6.33494e-06 1.4406e-05 5.74138e-06 5.3719e-06 5.3719e-06 4.64493e-06 2.09522e-05 9.11938e-06 3.76475e-06 1.32528e-05 4.21468e-06 4.64493e-06 8.43313e-06 5.74138e-06 3.76475e-06 4.32387e-06 3.76475e-06 5.74138e-06 1.32528e-05 1.10661e-05 3.76475e-06 3.76475e-06 1.38076e-05 1.32528e-05 1.32528e-05 4.32387e-06 2.80904e-05 4.21468e-06 6.33494e-06 3.76475e-06 4.32387e-06 7.8448e-06 2.09522e-05 1.10661e-05 4.32387e-06 7.8448e-06 5.74138e-06 4.64493e-06 6.33494e-06 3.76475e-06 1.38076e-05 4.21468e-06 3.76475e-06 4.64493e-06 7.8448e-06 4.32387e-06 3.76475e-06 1.10661e-05 1.4406e-05 9.11938e-06 5.3719e-06 7.8448e-06 4.21468e-06 5.74138e-06 7.8448e-06 1.32528e-05 4.64493e-06 4.21468e-06 4.64493e-06 1.38076e-05 7.8448e-06 4.32387e-06 5.3719e-06 1.10661e-05 5.74138e-06 1.4406e-05 1.32528e-05 4.21468e-06 5.3719e-06 1.38076e-05 5.3719e-06 4.64493e-06 4.32387e-06 9.11938e-06 4.64493e-06 4.32387e-06 4.21468e-06 4.64493e-06 9.11938e-06 1.32528e-05 2.09522e-05 5.3719e-06 3.76475e-06 5.3719e-06 7.8448e-06 6.33494e-06 3.76475e-06 3.76475e-06 4.32387e-06 1.32528e-05 9.11938e-06 1.4406e-05 9.11938e-06 6.33494e-06 1.32528e-05 1.4406e-05 1.32528e-05 7.8448e-06 1.10661e-05 8.43313e-06 5.74138e-06 2.80904e-05 4.32387e-06 8.43313e-06 4.21468e-06 1.4406e-05 4.21468e-06 5.3719e-06 4.21468e-06 7.8448e-06 1.32528e-05 7.8448e-06 1.4406e-05 2.80904e-05 3.76475e-06 4.21468e-06 5.3719e-06 9.11938e-06 1.10661e-05 1.32528e-05 3.76475e-06 9.11938e-06 5.74138e-06 3.156e-05 4.32387e-06 9.11938e-06 4.21468e-06 7.8448e-06 4.64493e-06 1.4406e-05 6.33494e-06 4.21468e-06 1.32528e-05 4.64493e-06 5.3719e-06 4.64493e-06 4.32387e-06 5.74138e-06 7.8448e-06 1.38076e-05 1.32528e-05 6.33494e-06 1.4406e-05 3.76475e-06 1.38076e-05 5.3719e-06 6.33494e-06 1.4406e-05 5.3719e-06 6.33494e-06 4.32387e-06 7.8448e-06 4.32387e-06 7.8448e-06 6.33494e-06 1.10661e-05 7.8448e-06 1.4406e-05 9.11938e-06 7.8448e-06 1.32528e-05 7.8448e-06 4.32387e-06 
</DataArray>
<DataArray type="Float64" Name="cell variable 7" format="ascii">