<VTKFile type="UnstructuredGrid" version="0.1">
<UnstructuredGrid>
<Piece  NumberOfPoints="    3476" NumberOfCells="    2553">
<Points>
<DataArray type="Float64" NumberOfComponents="3" format="ascii">
17.2924 43.5302 0 
21.1098 17.8948 0 
-23.9429 -29.3276 0 
53.721 25.0578 0 
23.393 6.63501 0 
-29.5295 2.71998 0 
-39.9232 40.9742 0 
1.14243 -12.2365 0 
-30.6504 52.9365 0 
4.53026 -64.3794 0 
35.483 -1.74387 0 
8.19635 42.0067 0 
-33.6139 -0.396633 0 
-55.7877 -1.11097 0 
38.4172 36.0309 0 
8.38011 -25.7195 0 
33.2141 42.4547 0 
-17.5299 45.6693 0 
-25.7129 -18.5385 0 
34.2843 -27.9036 0 
29.943 -22.2543 0 
49.033 19.8255 0 
-32.3002 28.5447 0 
16.1692 3.12828 0 
-8.69951 36.7664 0 
-30.1008 29.3633 0 
-20.3348 -29.2508 0 
19.6488 -44.58 0 
23.4847 -24.0525 0 
-3.95619 -58.1678 0 
4.6779 -48.9207 0 
-11.655 0.052107 0 
-25.1742 -47.6385 0 
-47.1889 34.9703 0 
4.82432 -44.1553 0 
-16.8879 -37.0004 0 
-25.1207 0.79296 0 
23.526 16.708 0 
-12.9699 11.6127 0 
-53.9065 7.30708 0 
-6.62707 7.08429 0 
-19.707 -52.2183 0 
-0.968706 -26.1876 0 
42.1348 21.9129 0 
-32.6164 51.6461 0 
-13.8876 58.4307 0 
-31.2012 -0.93845 0 
-15.0484 52.9243 0 
12.7833 54.6944 0 
-31.1448 30.0667 0 
6.30166 50.3688 0 
-51.5109 -27.2836 0 
-5.37247 38.7414 0 
49.8678 7.01083 0 
-46.8909 38.141 0 
29.5274 55.4821 0 
-0.883422 35.7666 0 
26.7564 24.8414 0 
18.1626 -49.5318 0 
-13.1608 39.2054 0 
29.975 19.875 0 
58.4272 -28.9289 0 
-35.4976 8.47643 0 
-10.0993 -0.924339 0 
-10.473 -45.1373 0 
38.981 -21.8412 0 
-27.392 -36.1825 0 
-12.4004 -53.6244 0 
-3.35283 -52.5161 0 
-47.4057 30.0094 0 
36.9742 -9.57662 0 
-31.5919 -13.6238 0 
-46.8823 0.859044 0 
-54.8526 30.3747 0 
43.2696 8.10643 0 
48.9475 -6.79811 0 
-36.3236 11.6193 0 
-46.8897 32.1634 0 
-11.6834 -52.039 0 
19.2361 4.17511 0 
-9.28308 21.9801 0 
26.2954 38.6697 0 
-26.9147 -27.1142 0 
-49.4732 18.7686 0 
-2.76964 -20.9597 0 
-10.3736 -20.5537 0 
32.8448 -16.1259 0 
53.9259 20.3947 0 
32.8823 36.9163 0 
-3.86014 -54.1461 0 
47.1099 26.5127 0 
-17.0048 23.078 0 
59.2381 15.6509 0 
20.3871 31.9047 0 
-57.7765 -23.9638 0 
-12.1513 -61.2175 0 
6.2548 30.7188 0 
8.47133 -59.5297 0 
-29.1041 42.9446 0 
-61.5365 4.56688 0 
8.28548 -19.9457 0 
-5.44226 2.06571 0 
-30.4746 -8.65435 0 
-38.7023 -12.3133 0 
32.9822 1.84245 0 
-36.9715 -0.326785 0 
39.3903 39.943 0 
29.0956 -1.73058 0 
14.7721 47.4566 0 
-13.0796 -25.8882 0 
-3.03087 -10.4068 0 
-46.6048 32.5926 0 
-19.4004 13.5164 0 
25.9389 -41.2886 0 
14.2026 -39.7509 0 
-0.367011 -37.1995 0 
30.8776 11.4415 0 
4.10201 34.7085 0 
-14.4893 -60.4569 0 
-58.0419 -17.6085 0 
22.6051 57.2427 0 
19.4467 -1.65102 0 
-44.1523 -3.70624 0 
-2.95559 30.3812 0 
-19.5957 2.17782 0 
-4.32973 -6.12822 0 
42.0935 1.52331 0 
46.787 27.1087 0 
12.5628 14.319 0 
-22.5772 47.732 0 
-19.6519 -38.7652 0 
-59.4463 -3.26111 0 
30.3473 11.0168 0 
-31.7595 -51.0076 0 
-10.3124 -7.08861 0 
-50.1983 7.33689 0 
-28.2707 -52.4332 0 
22.5558 40.6062 0 
10.8819 23.2117 0 
10.7686 -6.44012 0 
60.7129 -3.69341 0 
31.8205 -7.47795 0 
3.26699 15.0771 0 
-17.1487 45.2109 0 
-33.0506 -7.93343 0 
-32.0152 39.368 0 
14.6795 -44.9716 0 
43.3651 -46.7704 0 
-4.94798 -39.7057 0 
-21.739 21.5438 0 
31.423 -39.8478 0 
40.9464 14.6438 0 
-48.4474 -37.5174 0 
27.8206 -42.7984 0 
-54.0763 23.6641 0 
39.8602 26.1483 0 
24.9643 49.5283 0 
51.9757 32.7406 0 
43.9422 -28.67 0 
43.9357 18.4118 0 
-60.3048 -11.2972 0 
-33.3486 -39.9454 0 
53.5016 -1.55778 0 
22.1032 41.3653 0 
-6.32443 -55.0408 0 
58.6405 -17.2661 0 
-18.0762 -7.22745 0 
-33.0988 -38.1266 0 
3.11017 47.0546 0 
8.69847 58.3815 0 
-16.4627 57.4376 0 
24.0876 29.3421 0 
-54.5068 3.47878 0 
19.2997 19.5744 0 
16.48 -20.0545 0 
-23.8997 53.1513 0 
-19.8896 11.455 0 
-26.1555 36.437 0 
29.3434 -50.4446 0 
39.4037 -24.1426 0 
11.0412 -46.2541 0 
-20.6412 42.8274 0 
-26.9805 -15.7754 0 
-2.48005 11.6037 0 
-30.7142 51.5947 0 
-9.76431 60.2424 0 
39.0113 -39.2965 0 
-6.24726 14.9081 0 
30.2613 -29.6518 0 
-22.9934 -42.0458 0 
6.36006 59.0288 0 
38.9365 16.3756 0 
-15.0891 -45.5659 0 
-32.6201 -19.822 0 
16.5698 48.2058 0 
47.0412 28.0205 0 
16.9018 33.292 0 
-52.7515 23.7192 0 
8.84376 10.9502 0 
-39.5686 -42.0884 0 
16.0991 61.1529 0 
39.4323 -13.0272 0 
-37.8458 31.402 0 
-39.9369 -40.4355 0 
-10.0569 -30.4733 0 
-4.98432 38.9282 0 
-26.7062 5.61057 0 
-12.881 40.2059 0 
-6.54413 -13.5896 0 
0.76491 -37.689 0 
-13.2285 -61.2874 0 
55.6999 5.137 0 
4.02097 3.65199 0 
19.4504 -2.87519 0 
-16.2445 -21.805 0 
-52.0196 -4.08646 0 
9.25295 -26.8771 0 
-15.3098 50.4114 0 
-22.2405 34.9209 0 
-0.544801 -54.3114 0 
14.8631 22.0747 0 
-2.18759 45.0882 0 
16.6875 -31.7118 0 
-16.0827 19.6027 0 
43.9933 -30.1561 0 
43.038 8.66044 0 
45.5689 -31.8395 0 
41.6466 43.2294 0 
36.2911 -1.44685 0 
-11.4368 60.4473 0 
-5.96891 54.2249 0 
44.6627 -5.27483 0 
-36.255 9.54949 0 
-49.2142 18.0685 0 
58.9962 -26.4236 0 
-44.0602 6.99771 0 
15.9609 20.7299 0 
-20.204 19.4868 0 
-17.5809 -20.1216 0 
59.4985 -1.15985 0 
-33.3331 -46.8459 0 
-2.4951 56.4321 0 
-51.3425 -18.9357 0 
19.3241 -3.21562 0 
-51.6223 1.37977 0 
-9.32024 -21.9158 0 
6.00407 33.2959 0 
-14.9095 -56.5286 0 
-25.5026 49.7089 0 
-16.4687 -35.9245 0 
-9.31623 -26.3015 0 
22.9267 17.2738 0 
19.6869 19.5692 0 
-28.9946 -27.522 0 
20.4027 -56.1796 0 
2.28314 -2.09057 0 
-47.5969 -39.1824 0 
-11.2315 32.2944 0 
0.859594 -44.422 0 
-39.2359 -39.0713 0 
54.9955 -3.4478 0 
15.4373 -19.2085 0 
27.866 34.5687 0 
59.6434 -2.98631 0 
10.7459 -42.9132 0 
44.0617 -27.47 0 
-22.0608 27.2556 0 
-48.9096 19.2054 0 
-19.6598 2.74765 0 
51.1734 -24.038 0 
27.8372 -11.5008 0 
-34.4473 -31.5275 0 
-38.3967 -6.15944 0 
43.4578 7.95724 0 
38.4872 25.8411 0 
-0.123691 -50.111 0 
49.3733 1.35451 0 
29.4968 -4.30881 0 
10.7625 44.9136 0 
-16.0912 -13.4749 0 
-22.3039 47.3705 0 
12.7837 46.9724 0 
-13.7989 -44.5695 0 
46.5481 -12.0279 0 
24.861 -16.2963 0 
37.124 10.44 0 
-39.9545 -10.6506 0 
19.4136 -1.77228 0 
52.963 -10.1094 0 
-38.7249 25.9391 0 
-49.3113 -6.0745 0 
-17.7667 3.05316 0 
-9.19436 45.2746 0 
20.7206 -31.9154 0 
-42.3785 -9.24295 0 
8.91242 7.88398 0 
7.09274 -46.5192 0 
-25.501 42.5153 0 
-26.7197 37.2569 0 
-32.4884 -7.72372 0 
-18.7675 20.2313 0 
18.4515 50.8577 0 
-52.2726 -21.7991 0 
12.4764 40.8567 0 
49.4072 -17.3975 0 
-17.0961 -20.4528 0 
62.1165 10.4675 0 
4.61628 34.6496 0 
-27.2508 22.7587 0 
-12.8626 -12.7073 0 
49.6853 0.505634 0 
-22.7911 -2.42151 0 
46.2037 12.6266 0 
-8.12345 -37.303 0 
37.18 -13.2772 0 
-61.0369 11.1802 0 
-40.4053 33.552 0 
-14.6625 -34.6139 0 
-13.7549 15.818 0 
48.7193 17.0226 0 
21.4062 53.568 0 
30.7737 -34.4453 0 
21.5061 -48.7536 0 
57.7808 4.46977 0 
-56.411 16.3422 0 
-1.20906 -7.24802 0 
-24.8027 -21.2391 0 
17.6529 -55.9895 0 
47.4132 25.9163 0 
-61.7606 3.3253 0 
43.761 -29.6237 0 
-49.3307 -6.13169 0 
5.71248 -20.5463 0 
-22.0833 53.7344 0 
-34.0082 -19.9038 0 
44.3539 -46.1213 0 
50.2669 -9.07811 0 
18.4191 -38.1865 0 
-26.1935 -23.9043 0 
-20.1443 15.5474 0 
29.4874 -25.2095 0 
-1.14515 36.5337 0 
43.964 -28.9302 0 
1.79548 47.256 0 
4.93526 -6.28479 0 
-42.3291 32.746 0 
-5.28208 43.084 0 
1.71362 -22.9359 0 
-20.185 14.3824 0 
23.0595 45.6886 0 
62.5065 9.37968 0 
-38.327 14.1166 0 
-35.0755 15.9529 0 
-7.70446 -13.9104 0 
20.8569 -26.9869 0 
-13.1487 11.5561 0 
0.630808 13.2274 0 
-36.0793 37.0731 0 
-14.4149 -34.0374 0 
-24.5129 28.5892 0 
14.2076 -14.1008 0 
5.88138 33.5423 0 
-29.5497 18.2751 0 
-45.3099 13.9007 0 
30.1375 -33.5196 0 
7.2476 41.5803 0 
-37.8644 -2.26675 0 
-16.6094 -45.4154 0 
-46.4592 2.03617 0 
2.91147 -1.0351 0 
-6.6778 -45.1154 0 
42.3601 13.4133 0 
14.7032 11.3881 0 
-42.2743 23.8753 0 
10.0478 -45.5699 0 
21.0208 -39.2836 0 
1.42009 55.0287 0 
55.0274 9.45479 0 
-24.751 29.1145 0 
7.66373 -12.4201 0 
-52.0058 -8.19461 0 
27.9475 41.8802 0 
29.5676 19.932 0 
27.4723 12.5314 0 
18.8396 -18.616 0 
-41.8417 23.8759 0 
-24.8682 11.2532 0 
52.4335 -17.3806 0 
-49.2417 -17.5186 0 
-18.7622 -23.3344 0 
43.352 15.692 0 
-9.69577 8.43472 0 
46.1285 27.1939 0 
-40.8601 -15.64 0 
39.3552 -20.5386 0 
36.3823 -9.41353 0 
-14.1931 11.3913 0 
21.5316 -18.236 0 
-2.56933 13.2131 0 
53.7116 15.9117 0 
-15.2693 37.288 0 
11.6711 -19.8211 0 
-8.29738 48.2897 0 
9.93088 -57.8698 0 
-54.0925 6.6957 0 
-1.99083 -13.2862 0 
-28.5675 37.0496 0 
-38.2305 5.29873 0 
-9.61467 -21.023 0 
28.5848 45.7742 0 
33.0298 36.2308 0 
-12.3576 14.0271 0 
8.9759 -39.3271 0 
38.6133 -39.7302 0 
14.8738 9.36933 0 
-34.2124 43.8438 0 
-11.6711 -0.507864 0 
0.186988 21.4659 0 
-14.4512 -57.6472 0 
-14.0065 -3.80512 0 
1.66025 -14.6771 0 
-3.68601 0.500239 0 
16.322 7.69806 0 
55.0184 27.8728 0 
-37.3935 -47.4345 0 
-5.76991 51.8416 0 
11.854 -47.8219 0 
-16.1899 -22.6796 0 
3.85657 29.3606 0 
18.5311 31.6157 0 
-1.36963 45.2943 0 
39.0425 6.44719 0 
-1.55792 21.8392 0 
-21.573 20.3308 0 
-47.2679 -2.71085 0 
35.5534 -43.3168 0 
-18.0748 -2.65171 0 
13.4842 -13.2411 0 
-54.1464 -8.86604 0 
16.4802 -8.44451 0 
-23.5332 -40.7526 0 
3.13535 9.00984 0 
15.7029 41.1299 0 
14.8062 -39.1407 0 
44.6459 -45.7285 0 
4.94221 9.94234 0 
-26.4946 -17.0311 0 
-3.08696 -44.0126 0 
-25.2442 -39.5406 0 
-0.698589 22.383 0 
-39.1985 -11.0541 0 
58.7692 -27.5711 0 
12.1769 29.0998 0 
-46.3639 -28.0895 0 
-25.1642 43.1258 0 
42.0082 -47.4409 0 
-0.833422 37.2586 0 
30.5339 -44.0629 0 
35.3679 -1.2831 0 
37.3752 22.9621 0 
-32.0598 -5.60801 0 
22.3849 6.04991 0 
30.6012 -44.7405 0 
-0.922042 33.7148 0 
-0.720474 49.939 0 
28.5204 -51.1813 0 
0.0501626 3.94582 0 
-61.4976 7.08386 0 
59.6551 15.1551 0 
32.8284 12.1262 0 
-14.9835 -40.9309 0 
3.59505 15.2516 0 
-46.2782 -11.3289 0 
24.6085 28.5539 0 
22.7779 -7.99512 0 
-18.9611 -45.6181 0 
-3.82294 -48.0924 0 
-20.9463 35.9997 0 
33.0876 -36.4033 0 
6.41831 50.8324 0 
21.2406 -55.7466 0 
-10.3631 9.85833 0 
29.0785 -42.8152 0 
-24.2046 -12.6451 0 
-19.6971 -29.4705 0 
-17.895 -11.942 0 
-15.7485 -14.8245 0 
59.187 -13.6237 0 
11.2662 -29.5214 0 
-19.0858 -53.9648 0 
45.9775 5.68543 0 
58.2453 -17.3235 0 
-51.9207 -20.2954 0 
[...]
<CellData Scalars="wall variable 0">
<DataArray type="Float64" Name="wall length" format="ascii">
1.98234 2.81846 2.13904 4.22394 0.606542 0.335163 2.54514 2.68296 0.488082 4.34939 0.332133 0.499536 6.40995 1.63439 2.72066 7.15728 1.39375 8.47485 3.22132 0.972749 7.65083 2.36121 1.84045 8.81345 0.630125 3.73384 0.356354 3.21129 1.81454 6.67019 4.23888 2.23143 3.65237 6.14833 4.81526 2.06487 0.80993 7.39502 1.18811 2.63118 1.56472 7.79719 0.269406 0.823756 7.98015 2.6483 7.80832 0.796894 1.18811 0.911553 3.01425 3.13926 0.577033 6.49589 5.07887 2.2221 2.09957 0.612163 1.70024 6.6797 2.11489 0.588402 5.35299 1.53174 0.502974 2.69027 1.15802 3.91259 2.78638 2.87462 1.47133 0.575601 1.577 1.21124 7.48067 1.57966 2.14529 3.53012 4.50347 3.81331 2.59735 7.54619 5.43455 2.4367 6.43015 2.37476 2.88525 2.46834 0.451012 1.74429 0.304842 5.53497 0.841757 2.9508 1.40468 6.33646 1.96033 6.22626 2.39148 6.62493 0.0448259 3.24892 3.58621 0.962755 5.24997 1.04958 5.44196 0.642 3.82262 4.99742 3.8122 0.456253 5.49722 5.3236 0.823319 5.49722 3.77763 1.58533 5.69237 0.970624 5.71835 2.25151 2.6258 7.80832 2.39148 0.729535 4.13908 1.12627 4.1893 5.56055 2.92937 1.59544 1.4624 3.94817 1.13675 0.685721 8.64646 1.57739 1.13675 5.21138 7.10246 0.479396 1.37665 9.7704 1.50348 6.71845 3.88905 7.13189 0.544033 3.82262 7.80182 0.594539 2.47846 9.18903 0.134132 4.18513 6.5482 1.11431 12.4303 1.94245 3.23368 7.25071 8.42338 5.41077 1.34385 2.93322 2.66649 5.37037 0.617488 4.8552 3.59961 0.706758 3.9504 4.45658 0.268911 7.08079 4.77363 4.40797 5.81277 0.386113 6.0686 5.0692 2.62014 7.91453 1.56294 2.33215 2.74525 0.516178 4.06149 4.87605 2.07157 7.10851 1.2835 0.282032 3.48159 4.4267 0.676762 1.30045 2.51796 2.78994 2.71614 6.75345 6.79935 2.8295 5.79281 0.3189 2.82322 1.46985 0.165769 1.88556 2.74746 0.0448259 0.412718 2.48348 3.59962 3.14578 0.930478 6.44256 0.233862 4.74601 5.97636 1.68198 4.25945 7.75996 3.58638 6.69834 1.24291 7.95545 4.25091 0.250446 2.25575 7.46814 5.73087 3.14142 0.706758 0.480856 5.19012 1.50329 2.55826 6.56879 0.961939 7.90427 1.45531 1.20669 5.76879 0.643168 1.39038 2.58674 4.45388 1.53525 2.27888 3.37259 4.71111 7.65083 2.33816 1.33005 0.96052 8.27119 1.21723 4.25945 2.9524 4.14727 6.00603 3.08322 0.417437 9.62874 0.963938 12.2889 1.49702 6.93918 0.621552 1.94105 7.46814 1.46241 2.86172 3.07497 5.07887 0.563746 0.3189 7.21737 2.72518 1.18149 2.2594 6.72204 4.49245 0.551367 4.71111 1.39916 6.94637 1.27003 1.66383 2.30969 3.48159 3.01425 1.22007 0.254014 4.07326 3.58638 0.402594 6.60148 2.13904 6.81543 2.04255 3.64078 6.10604 3.19078 2.45001 0.838551 4.81522 5.65408 4.07541 5.45312 3.55089 3.94052 4.79603 3.06093 1.88633 1.47879 7.03005 2.95249 3.25733 2.9379 1.39247 0.922615 0.838551 7.31144 0.751555 5.36654 2.25214 1.47133 0.199722 1.23923 0.386113 3.42574 0.58799 2.47846 5.26874 0.489612 2.3043 2.78901 0.453216 5.19942 4.83334 1.01483 3.38197 1.21723 3.08569 5.43863 2.9379 1.05542 2.09957 3.85135 6.18938 0.793995 5.73087 1.94105 3.8153 1.49903 4.77363 0.499536 7.83294 1.70983 3.45984 5.8865 7.15932 1.5045 0.271533 6.81543 2.81846 6.20903 5.04384 1.67555 1.43726 3.06093 1.45228 1.1999 6.40813 5.12358 0.387425 5.92564 0.679602 10.4556 1.46661 2.08699 0.91027 0.196332 13.165 0.385501 0.26735 6.4496 3.73956 0.474936 1.94245 2.66686 1.47463 1.96717 4.94253 6.60702 2.41484 0.335163 5.99192 0.710457 2.65909 3.31434 1.43745 5.83622 0.746624 0.506381 0.500216 5.67912 0.545379 4.61616 3.42194 6.20903 0.488985 6.33392 1.62875 1.1151 7.25071 1.84575 1.48572 10.2172 0.750845 3.05252 3.12945 0.874851 2.26069 5.79661 0.45522 0.542309 1.27032 4.18824 0.322037 1.48572 3.49321 5.45312 1.68135 5.6017 6.74579 3.76276 0.575422 9.14129 0.185494 3.9846 5.84946 1.76811 3.63052 6.343 1.77322 4.1804 0.777386 2.73043 0.537923 7.03005 3.51937 2.22004 3.03615 2.4367 1.72526 1.9517 9.71277 1.71115 0.298899 8.46613 0.337081 5.67114 0.402231 3.61671 2.43837 2.14529 3.69168 0.643121 5.78098 1.58185 1.81454 3.74945 3.22798 4.72769 0.43901 4.88893 1.87896 6.81662 3.50666 2.11267 4.07444 1.1925 5.35299 7.37393 6.62493 5.56055 2.62232 2.68089 0.412718 0.452001 10.752 2.72518 3.61915 4.22344 0.304842 2.55806 1.24313 1.06651 0.839199 1.63439 5.69695 1.86687 9.39895 4.22344 4.70963 5.819 5.53497 0.463059 1.90274 12.029 1.26219 13.165 0.531341 2.78192 1.24817 7.95162 0.499579 8.60891 4.0053 4.83287 3.71906 1.03716 4.33372 1.62889 0.420288 5.0002 6.28326 1.577 7.78457 3.33763 0.995454 1.25406 1.253 2.74516 1.04958 5.03274 0.196332 8.12583 4.99559 5.36141 0.531341 5.84347 2.62014 0.827751 1.03266 3.10257 7.4935 3.59235 3.29777 6.22342 0.516259 8.51789 0.479519 9.03038 0.463059 5.36141 1.26252 4.59277 9.13357 1.27003 4.01245 0.855842 6.0686 1.23923 1.97504 3.24576 6.83151 0.692048 4.4267 2.30969 3.33763 1.33139 2.31355 4.51889 5.28646 2.40453 1.12627 4.68638 0.506029 1.87867 6.4496 6.23 0.399344 3.87022 2.54514 2.41484 5.51908 1.15936 5.65408 4.30697 0.134132 0.717647 7.79719 1.67555 7.78771 1.30045 4.78307 0.814244 7.19555 7.19555 8.22521 0.793065 1.14345 1.88633 1.43726 6.70837 6.59652 4.05067 1.96033 0.691034 4.44353 6.28332 2.39367 1.57207 1.5391 6.03759 8.92922 1.88556 4.14099 0.726086 1.32431 1.04975 6.70837 3.24892 2.74746 8.92922 1.36217 6.55379 0.878302 1.58299 2.13114 2.33215 2.40762 1.01836 1.09531 0.455119 4.09367 3.42908 2.41772 6.34183 1.58185 1.14284 1.64439 4.83013 1.26477 1.438 6.67019 6.27905 6.33646 1.96303 4.02404 3.04795 5.42578 0.382342 3.9504 3.14142 0.346945 0.757973 2.10099 4.7851 3.86811 2.31251 4.37833 1.05932 5.3236 0.823319 3.28076 1.70983 0.553378 2.58792 0.874658 1.03716 0.250446 0.75791 3.12102 5.5581 1.00747 3.44477 6.69985 1.59191 5.69329 1.50849 3.20301 3.12 1.52741 3.62582 0.404541 4.20468 3.25908 0.504254 1.9517 5.07838 1.41616 8.10586 2.69027 6.28326 2.00056 7.55953 7.07404 3.50994 0.751555 0.594539 6.23728 6.75502 2.68296 3.87022 1.35264 3.90089 9.89071 1.59171 2.02066 12.1872 1.89525 5.37037 0.299059 6.08282 0.420288 3.87463 0.915007 0.943776 4.67402 0.82686 0.14388 1.9891 2.02592 6.16714 1.52596 9.37377 0.361546 1.05542 5.00445 1.697 2.07787 1.10132 2.11805 6.28332 1.36435 4.39012 6.14833 0.796894 2.6258 0.714591 1.41642 4.67097 0.641524 5.8077 4.65202 3.13926 6.60148 0.464297 4.59277 3.38952 0.378127 0.160455 8.93423 1.35072 0.881313 2.04653 0.309461 10.718 3.38197 2.13994 1.1742 7.2902 9.60276 3.82693 2.74525 2.13114 5.5573 0.617488 3.81534 3.42194 1.47818 2.51796 7.78771 5.04384 0.692394 3.31077 1.2369 7.15932 1.98234 6.75502 1.487 3.85135 2.2221 3.07497 4.93867 6.08404 0.267204 0.241383 4.7851 4.2672 3.20356 9.37377 3.58621 0.544033 2.49954 1.84045 2.52961 8.5873 0.493281 9.40585 4.83334 3.97311 1.54037 2.14916 6.0111 4.65202 2.24199 2.52578 1.06651 0.563302 0.641524 4.34809 0.493281 0.991197 3.73048 2.79527 4.59259 3.17077 4.87605 3.48998 1.4624 2.70771 1.11265 6.93369 0.772185 6.32328 4.44845 2.81061 4.90764 3.84131 1.64416 2.14494 6.59769 2.02248 6.76599 0.643121 0.678102 5.24771 1.08177 1.58254 0.811587 0.819725 2.62232 4.1893 2.40453 0.26735 8.90456 6.67148 8.25852 0.122662 4.18824 0.346945 6.56879 1.84688 1.67189 1.91303 0.799172 8.02871 0.545379 4.60473 3.32564 2.84057 3.25555 4.45538 5.5573 1.58299 7.04071 4.8552 3.36296 5.38329 2.11922 1.77359 5.19012 4.04802 10.7131 1.63461 7.10246 2.87462 8.05401 1.97504 1.66383 9.13357 0.199722 3.49827 2.97137 9.39895 0.336001 1.58533 2.08176 2.32243 1.85408 2.17329 3.31077 3.9042 5.74988 1.2069 4.1804 1.60063 2.57054 0.284637 7.26319 1.2835 1.87789 6.38704 3.84131 0.70154 5.83754 0.809674 1.08564 7.53262 0.95026 4.83013 1.52979 5.34203 0.995454 5.28646 1.01547 4.10892 0.216832 3.88905 2.47378 0.104929 1.70024 3.04757 6.22342 6.97031 3.20301 6.61946 1.39038 2.82774 2.89639 4.44845 0.602506 6.23 4.14206 5.26874 2.835 1.58388 1.75132 5.52189 1.26477 0.95026 1.02345 7.2055 1.51654 6.83806 4.08914 5.83622 1.11565 0.900883 5.40195 0.779021 3.26808 7.07404 2.89493 8.14244 1.22007 0.911553 7.39502 0.337081 5.24569 2.63006 2.52448 2.04653 2.10074 3.02736 3.95883 5.71767 0.586377 4.8259 1.14878 0.127733 2.66541 0.298899 1.41956 4.2672 2.10099 4.75725 5.7529 4.08673 0.586377 2.77601 1.83425 3.40021 3.91259 2.39311 8.60891 0.566006 5.27307 1.11265 1.82043 3.62219 2.13955 5.43953 0.637923 0.986852 4.7186 0.94738 2.7014 6.08404 3.59179 6.5482 1.93287 6.78385 4.67021 6.43634 1.49702 2.26331 3.30761 0.991405 4.78464 0.398212 3.43576 4.83287 4.29773 1.85522 4.48361 1.64416 6.38704 2.07778 2.26069 8.51029 0.455119 1.32999 4.94253 1.15794 0.62661 0.70154 4.90764 2.02333 0.185494 1.64601 2.37476 0.315462 6.89171 5.5581 5.74887 2.27888 3.93329 2.3092 4.39012 3.21305 1.35072 0.431773 3.87673 1.67167 4.81526 2.66686 8.42338 1.1151 4.01432 0.741109 3.76276 0.458464 1.05542 7.79519 2.92937 0.452458 0.369342 1.67158 3.16325 3.12671 0.739395 0.710457 5.81151 0.986852 2.74935 2.22796 4.50177 4.53073 2.64863 5.83754 0.62661 5.45692 3.95405 3.55089 3.49321 1.84575 3.23368 0.474936 3.87335 2.64505 6.7131 4.01432 1.62875 1.79312 1.10132 0.322921 7.44091 3.07213 3.38549 7.13189 0.216832 2.73936 4.68511 0.703437 1.90816 7.89586 4.10892 5.81296 5.84686 2.31251 1.07178 0.322921 2.89828 7.19345 2.47655 6.41487 2.21414 3.27537 0.799172 3.27362 3.37902 7.1736 0.194693 3.19078 1.15936 1.56472 1.96309 2.13955 7.0506 7.95162 2.06657 0.791296 1.35108 7.84367 5.8077 4.59259 3.75061 2.72861 2.24199 0.642 4.90008 0.818596 1.11565 7.55953 7.80182 0.714743 0.827751 5.0692 0.855842 3.34751 7.19345 6.45587 0.716317 3.74293 5.41077 1.89525 0.992177 0.0808772 0.779021 2.78262 6.92963 1.27312 1.38748 3.32564 3.77927 4.63579 5.02108 1.72266 1.73691 3.27362 1.91303 1.43127 10.718 2.71204 9.62874 2.11805 2.25151 6.50288 0.720456 0.165769 3.32387 5.91404 2.39367 4.9983 2.41025 5.78942 3.14186 3.04795 1.47201 4.48406 5.43998 2.48348 2.68089 0.819725 0.500216 6.72335 3.49827 5.25361 2.22049 3.83353 2.10074 0.881313 3.21305 1.36435 4.44353 6.33392 1.77546 0.938429 3.77927 4.60473 1.39247 6.18938 1.487 2.7014 7.67132 2.06401 1.40129 3.8153 0.621552 4.53007 7.84406 2.38779 1.43499 2.78192 2.39311 3.86487 0.453216 6.67533 0.714689 2.71614 2.06366 1.34208 1.87069 0.212008 1.35264 1.18777 4.86441 5.57725 5.23693 0.233862 0.97869 6.2757 0.997166 6.85763 2.50207 1.49888 3.92945 3.22132 4.9983 7.40516 2.21414 0.613154 0.899077 2.66808 2.14916 5.8436 1.80945 2.07157 0.692048 2.49813 0.928592 0.991197 3.78637 1.9891 2.46687 5.54603 0.716317 3.72662 0.717647 12.4303 0.173317 3.30761 8.95355 0.269406 2.49954 9.18903 0.58799 1.19411 8.81345 3.64368 5.83297 3.73048 0.928592 6.7841 1.64741 1.83425 1.44237 6.7841 2.49813 6.83151 4.99742 1.05932 3.71906 3.43576 7.78697 2.57054 4.71731 2.01117 2.50494 6.68429 1.09161 6.78793 1.67158 7.25429 5.6635 0.820026 3.0291 3.72662 6.45587 5.40195 1.77359 6.99577 0.356354 3.45158 3.70321 1.50329 3.46059 4.86441 1.84724 0.963938 2.71204 0.309461 2.52448 0.776202 5.61099 6.93369 5.27307 3.00685 4.33861 6.2761 3.51012 4.28428 6.40995 5.8865 3.35924 5.69695 0.814244 0.428633 1.21124 2.76947 1.85408 5.19711 8.22521 0.340542 2.95879 4.43955 2.82774 0.643168 8.04696 1.96309 2.63118 1.79794 5.74913 5.43953 0.997177 6.34051 3.81467 1.62889 4.31021 1.95796 3.58339 0.75791 4.25091 0.793995 7.08079 0.104929 0.942642 2.59735 2.37123 0.865532 3.51516 6.6797 5.02587 5.12358 2.31246 0.858382 5.38329 4.97866 1.34208 2.08797 3.25555 5.43613 4.7131 3.44477 4.5731 2.08176 3.77763 0.456253 0.178963 3.25908 1.36463 1.83627 2.47593 5.48802 7.53914 3.69168 1.57966 4.95036 3.79426 5.24569 0.463569 2.06657 1.24817 1.43499 4.94779 7.88807 4.73186 6.45824 2.58792 2.65353 1.87627 8.04696 5.76879 3.02616 3.10128 6.30053 1.84688 2.55826 3.70321 1.15247 7.2055 3.17379 2.9524 1.68198 0.411459 1.6751 3.19209 1.83627 3.4991 2.24705 6.34051 3.32172 6.22115 6.50288 5.71835 3.87335 3.73956 1.87867 1.89325 4.94779 2.38779 3.53732 2.86511 0.991405 0.173317 1.11431 3.59179 4.93867 1.18149 10.752 4.14099 6.44256 2.25834 1.13346 2.78574 2.12062 1.41084 3.16325 6.78793 2.36474 7.00574 1.76811 5.73424 1.52979 1.64439 3.69102 2.02248 1.74517 1.47201 0.757973 8.02871 3.27537 7.40516 2.11922 0.858382 1.99773 2.52961 3.21129 6.99577 5.44196 2.74516 2.3401 6.2709 4.90008 3.28076 5.69237 0.336001 1.86687 3.35924 3.45984 2.25575 6.69985 4.7131 1.27481 1.46241 4.71731 1.60063 1.77322 3.57345 0.96144 1.62348 5.89618 1.21924 4.52257 3.5936 0.750845 2.21053 2.22796 2.13786 7.08805 1.4582 1.23235 1.19825 0.340542 1.87627 7.31668 3.42908 2.97944 1.20044 2.46687 0.14388 7.36026 3.8122 7.78697 0.398212 0.752912 6.78385 2.86172 1.27481 0.178963 3.12695 5.15566 3.72568 6.55379 0.650482 1.81735 4.41707 4.34939 7.28135 3.36842 2.94648 5.90604 0.127733 10.4842 2.31948 6.64071 2.95249 2.22175 2.04255 0.271533 1.22042 0.469041 0.516178 3.82693 6.49246 1.35609 2.31958 10.7131 1.52412 7.28135 0.488082 2.10636 3.36014 3.95883 1.71115 3.13296 6.00603 2.70091 1.92611 2.14494 4.48361 0.168331 1.51782 7.2902 4.85073 6.83806 2.93322 1.36773 3.05252 3.5936 1.79092 5.18098 5.0002 6.08282 0.70906 9.82334 2.00056 0.862272 2.06401 1.45146 4.02404 2.71665 7.90427 1.15889 3.12 2.89639 4.43955 3.40975 6.38262 2.02333 6.59769 1.92611 2.7548 1.08564 0.762152 3.9846 1.79794 7.98015 0.0925903 3.4991 1.36463 4.20468 1.06665 1.0109 3.04931 2.255 0.516259 3.04757 0.502974 8.78308 1.8956 0.943776 3.22731 1.50348 3.38549 1.10705 8.25852 4.45538 2.08797 2.06366 2.78994 1.47818 4.61616 0.277527 4.8259 4.08673 1.15802 8.10586 1.90816 2.487 2.82322 0.563746 6.49589 2.39755 0.80993 6.38778 5.63132 2.75542 2.89493 1.00747 2.3092 2.82365 5.25361 2.32243 4.5731 3.61671 5.16895 2.93935 4.68511 0.856912 0.922615 7.67132 1.93287 4.18513 4.30697 4.81522 1.01547 4.51889 0.455287 3.12695 1.36217 1.21739 5.81296 3.36014 1.59844 0.740959 3.64368 1.44237 2.77601 5.71767 6.84207 5.43455 0.847278 1.85688 2.36474 1.09161 0.287792 6.75345 0.714689 3.46059 2.63006 3.79426 4.53457 2.57837 3.51616 1.79092 4.52257 6.39326 1.45531 2.71665 1.96303 1.40468 5.39053 0.874851 2.26225 2.97944 4.09367 8.51029 3.87463 7.78457 0.575601 2.25214 6.82842 0.992177 5.48802 9.66236 1.48448 1.81735 3.69427 4.75725 4.37833 5.84686 1.21739 1.01836 1.63603 3.01963 7.31668 3.02616 1.20669 6.39326 1.64978 1.46661 2.0144 5.07838 1.72526 3.26554 2.94648 1.23935 2.57837 0.43901 7.96479 3.38952 1.26252 4.99559 0.666693 2.45425 5.43613 2.84057 1.38748 6.45606 1.80945 3.40347 3.47182 0.777386 1.2069 7.10851 3.50994 3.26808 0.0808772 6.82842 5.36654 1.697 7.34803 0.586984 0.593305 3.59235 1.27116 4.34222 3.53732 6.67533 2.78901 0.709879 3.94052 3.95405 0.740959 2.48634 4.98582 3.75061 2.79527 5.83297 3.12102 3.58339 1.88218 2.2594 3.37259 5.74887 4.05067 1.9139 0.809674 2.64863 0.204629 0.840619 0.729535 6.22626 0.752912 4.78464 2.86511 0.452001 1.20531 2.954 4.67021 5.99192 0.606542 0.0657758 4.7186 5.81151 3.97311 5.43863 5.39822 3.00685 1.86589 1.45146 7.84406 0.69579 1.20531 2.55806 1.74429 6.27905 1.88218 1.95796 0.268911 1.52921 4.50974 1.67444 0.48933 0.504439 6.72204 0.561889 7.68735 2.88426 1.0479 6.69834 4.07326 3.09816 6.16714 4.00688 2.3401 1.253 0.91027 4.63505 4.88893 0.666693 8.12583 6.07922 0.678102 4.72769 1.13466 5.6675 0.170783 1.53839 1.49888 4.38928 5.24771 6.07922 2.50207 3.31431 1.04975 3.98824 4.29773 1.87789 1.9139 6.59652 0.489612 4.14206 5.51908 6.60702 1.32999 1.09531 1.96654 0.818596 6.2709 4.00688 2.02592 3.78637 3.0291 0.900883 1.64978 5.39053 2.9508 1.04519 1.87896 4.63505 2.08699 3.93073 5.67912 2.22049 2.82365 3.93329 1.53525 0.0925903 0.823756 8.95355 2.26331 4.0053 3.81467 2.24705 2.22175 7.31144 2.45001 0.194693 1.74985 3.51003 3.64078 3.10257 3.0987 4.63579 1.67189 6.30053 0.705549 2.47593 3.19209 0.997177 1.43308 4.73186 1.80443 9.66236 0.937695 8.17187 0.612163 1.05542 3.25733 6.64071 4.02182 8.54579 0.431773 8.93423 1.44974 8.32415 3.90089 0.212008 2.24409 1.39375 3.38061 3.35369 1.54037 1.86589 4.28428 1.05534 3.40347 5.8436 4.17269 7.88807 1.89325 0.506029 0.777383 4.4126 0.506381 0.527759 4.70578 0.563302 1.24313 2.97137 6.72335 2.36121 8.27119 7.83343 3.38061 1.97237 10.4842 1.14878 0.277527 1.41616 9.82334 5.54603 1.20044 2.26225 3.12945 1.36773 1.34385 3.74293 5.41896 3.53419 1.68135 0.741109 6.7131 6.32328 0.760625 2.02123 3.9042 0.692394 6.23728 0.399344 0.602506 0.299059 2.66649 5.18098 3.51616 1.23935 3.36842 1.97237 0.70906 3.1114 4.07444 0.795012 3.59962 5.43998 4.22394 6.10604 3.51003 7.04792 0.94738 0.0657758 2.06487 1.67167 4.71382 2.28749 0.78931 6.38778 3.42574 7.91453 5.84347 0.662515 0.630125 1.19411 3.70223 1.08177 4.38928 2.00985 6.92963 3.0987 1.03266 0.714743 2.89828 0.380593 5.14703 0.407997 5.02108 0.566006 0.499579 7.84367 2.30907 5.43586 2.22004 0.699161 0.776202 0.402594 7.95545 0.99543 0.434769 6.67751 2.28032 0.479519 0.464297 2.46834 3.7682 5.24486 6.40821 2.7548 2.70091 4.14727 3.17379 1.02345 7.53262 5.00445 0.739395 5.23781 7.34803 5.91404 3.9633 5.83421 1.57207 3.59961 7.04071 0.878302 3.72568 0.940845 0.387425 5.02587 3.36296 0.480856 7.15728 7.98412 2.48634 1.59844 2.10636 1.27116 8.51789 2.255 1.15694 6.04057 0.284637 6.68429 2.71999 5.14703 3.27318 3.94817 3.48998 4.06149 0.469041 4.04802 5.21138 2.21053 5.79661 2.07778 1.96717 4.50177 5.84946 0.762152 5.34203 5.73424 1.27032 8.62426 4.67402 1.8956 6.67148 1.14379 0.97869 7.75996 1.21723 3.13296 1.85522 3.98824 1.32431 4.94383 7.52562 7.68735 2.07787 4.34222 6.04057 1.62695 5.41896 2.64505 0.33528 12.2889 1.84724 1.18777 12.1872 1.79312 10.2172 0.322037 0.122662 1.10705 3.07213 6.88867 0.267204 1.52596 0.795012 7.37393 0.588402 1.06273 5.82976 3.14578 1.25261 8.78308 1.53174 1.1925 3.1114 4.48406 0.811587 3.62582 2.0144 4.53457 1.21924 6.76151 2.41772 7.36026 0.82686 8.62426 0.542309 1.66448 1.33139 5.03274 5.24997 0.574322 1.1999 3.22915 0.282032 7.26319 3.27318 0.380593 6.41487 1.67148 1.39916 3.96469 6.2757 1.14379 0.726086 6.03759 1.41084 5.8825 6.89171 2.51339 2.30907 1.35108 0.404541 6.76151 2.13786 2.74935 0.637923 5.74913 1.06665 1.67148 2.47655 3.34751 4.01245 6.94637 6.0111 4.70578 9.4884 0.714591 2.24409 1.87069 4.97866 2.45425 0.47968 0.997166 8.47485 3.61915 7.21737 5.79281 1.9679 4.70963 0.662515 7.4935 0.705549 3.10128 3.45158 3.73384 1.96654 6.34183 1.66448 0.45522 4.07541 0.709879 2.3043 0.361546 3.20356 1.41956 3.10364 2.70771 1.59544 7.79519 0.332133 4.41707 1.48448 1.80443 2.65353 0.553378 7.83294 3.69102 1.14284 5.78098 6.76599 3.53012 2.43837 0.856912 2.73936 1.18987 0.937695 2.31948 5.7881 2.835 5.19942 3.86487 1.82043 2.81061 0.204629 4.53073 1.6543 4.4126 6.80898 6.43634 2.954 0.69579 4.53007 6.93918 0.881788 7.71253 2.73043 3.47182 1.05534 3.51012 3.17912 1.53839 7.79692 1.24227 2.33816 0.972749 3.92945 1.18987 7.89586 2.39755 0.577033 8.17187 4.34809 4.67097 1.72067 2.13994 1.01483 9.40585 1.07178 3.86811 0.241383 6.88867 7.44091 1.50849 0.67934 4.40797 1.49903 1.40129 0.862272 0.961939 6.61946 1.6543 5.45692 1.15794 5.8825 0.791296 0.463569 4.17269 0.699161 3.51937 1.47879 1.14345 3.54333 0.760625 0.772185 5.61099 0.938429 1.48768 5.24486 2.91155 0.575422 1.74517 1.58254 3.70223 2.78262 3.26554 8.46613 2.66541 5.90604 3.14186 1.56421 1.99835 1.35609 3.01729 5.42578 3.22915 5.92564 0.940845 5.15566 0.455287 2.31355 4.50347 5.7881 1.22042 1.5045 1.2369 2.17329 2.76947 0.47968 6.45606 1.27312 2.00985 3.31431 6.85763 2.28032 5.05266 2.38896 1.90274 9.03038 0.428633 4.78307 0.676762 0.287792 4.95036 7.48067 1.96087 6.81662 1.04519 0.841757 5.819 1.9679 2.8295 4.03133 7.3138 1.27458 0.830634 0.479396 1.63461 2.31958 1.99835 1.53556 3.50666 1.96087 6.79935 0.720456 6.22115 1.41642 9.4884 0.527759 0.746624 4.08914 4.85073 1.1742 1.72067 1.72266 0.407997 2.71999 2.50494 3.85543 7.40517 0.452458 8.64646 5.998 2.07695 0.606696 1.96777 3.12671 7.00574 1.85688 0.782345 0.586984 5.23781 2.91155 3.7682 2.88525 1.64601 9.14129 2.78638 3.40021 1.64741 3.24576 8.05401 3.22731 0.915007 3.09816 1.25406 2.47378 6.71845 1.63355 0.807214 0.198226 4.71382 3.87673 8.54579 3.10364 5.7529 1.63603 2.40762 1.56294 3.17077 1.74985 7.0506 3.62219 7.04792 2.75542 0.202737 1.30822 0.881043 4.94383 0.561889 0.254014 8.14244 6.49246 3.81534 4.45658 0.382342 3.01729 0.504254 7.53914 3.69427 0.650482 1.52412 9.71277 1.25261 8.9