<VTKFile type="UnstructuredGrid" version="0.1">
<UnstructuredGrid>
<Piece  NumberOfPoints="    3369" NumberOfCells="    2471">
<Points>
<DataArray type="Float64" NumberOfComponents="3" format="ascii">
-34.6825 41.909 0 
10.4681 9.44932 0 
-11.4092 -13.4198 0 
21.8949 -34.7762 0 
-59.3414 -1.70236 0 
-45.3905 21.2148 0 
10.8596 -52.0245 0 
-23.3551 -56.7137 0 
-0.0579132 -62.4414 0 
1.85825 -32.5231 0 
16.3477 -1.49387 0 
-4.01944 -41.1321 0 
-17.2512 50.1733 0 
33.5267 -30.1089 0 
17.1094 16.9681 0 
-13.1055 -51.7733 0 
-25.5956 22.2217 0 
-7.53026 21.5683 0 
-36.3483 -46.6661 0 
38.8088 -22.962 0 
-4.82957 33.9907 0 
49.0609 -26.4702 0 
33.259 -0.369186 0 
7.04972 0.681203 0 
1.44537 -38.0385 0 
-14.9255 14.1651 0 
-31.6162 -39.1022 0 
-16.8352 37.7712 0 
-57.1802 -4.8611 0 
-0.0527556 -26.8836 0 
1.92153 -22.5747 0 
54.0231 27.7416 0 
-26.3828 40.5007 0 
-35.6525 -2.42484 0 
-35.0245 -17.7569 0 
-14.8792 -51.3793 0 
-16.6162 43.5211 0 
-11.4364 60.8068 0 
-7.01342 5.40122 0 
13.2555 -57.4007 0 
-19.5663 -24.5326 0 
-60.7283 -4.42226 0 
-0.449416 -12.7168 0 
59.1486 19.1787 0 
38.5031 11.5329 0 
-33.4893 50.8649 0 
-15.2907 -0.965947 0 
-33.9107 40.3839 0 
6.77385 25.9896 0 
-5.13949 -53.0333 0 
59.1908 -7.53056 0 
-1.07068 -38.3599 0 
-31.0902 -11.3952 0 
24.4287 2.83234 0 
-31.182 -29.5237 0 
-53.5709 8.5129 0 
21.0611 22.3334 0 
27.2331 31.7045 0 
16.4577 -33.0365 0 
7.10392 52.1715 0 
-32.3539 40.239 0 
-43.3249 0.695022 0 
-6.15331 -53.4902 0 
51.0368 -32.9161 0 
-13.5795 29.8788 0 
-16.515 -41.0786 0 
29.7506 38.291 0 
-29.8409 -45.972 0 
29.4916 -21.6986 0 
-22.3378 15.2023 0 
17.9348 -4.884 0 
-21.504 45.8002 0 
27.6386 -43.7596 0 
43.595 -15.9449 0 
22.1273 3.33608 0 
23.0081 -4.09713 0 
30.5099 -33.7526 0 
-39.5095 -40.2909 0 
-36.897 38.4038 0 
-14.1077 61.2004 0 
-42.3708 0.0877597 0 
37.2113 -48.0675 0 
-12.6805 -12.8835 0 
-17.2699 -52.8475 0 
-40.5913 19.9944 0 
0.944839 32.609 0 
38.0414 12.9847 0 
-32.562 13.4752 0 
-57.6038 11.042 0 
-46.6853 -12.0761 0 
2.509 -59.9495 0 
-35.8815 -35.4651 0 
29.6032 40.4063 0 
8.81613 15.6802 0 
36.4097 -48.9945 0 
29.1444 26.8277 0 
37.998 -2.90929 0 
-27.4171 50.6241 0 
48.7143 21.5247 0 
14.2934 -44.2207 0 
8.50297 -36.9981 0 
41.622 -6.32905 0 
-18.4698 29.7873 0 
-18.9945 -5.63988 0 
40.6887 -4.5216 0 
-17.6109 -0.870023 0 
-21.7988 -46.934 0 
39.3278 -3.3945 0 
21.6531 -38.815 0 
50.0285 -14.8891 0 
8.98213 -52.9296 0 
-21.8859 15.7303 0 
-47.742 36.7532 0 
30.9363 51.6575 0 
20.0542 -46.867 0 
-0.432497 -18.114 0 
-40.1744 -37.0914 0 
9.40059 -31.4852 0 
-6.92769 -29.0405 0 
49.0413 -6.47884 0 
39.5139 9.22327 0 
8.88109 -0.980667 0 
-31.0198 15.9137 0 
-0.725506 15.5589 0 
30.99 -36.5143 0 
-43.8283 -45.1268 0 
-20.0671 -27.0754 0 
22.7699 13.7321 0 
-54.9859 -19.7455 0 
-51.8393 17.6197 0 
27.5087 -49.693 0 
-28.5686 -2.12786 0 
13.7973 6.04548 0 
-15.8474 -23.3715 0 
48.0548 -28.4567 0 
12.1796 -57.4983 0 
42.5473 -7.44824 0 
43.7616 -36.5621 0 
-61.0003 -10.3869 0 
-50.2254 -3.58369 0 
22.1103 34.5751 0 
54.3245 -24.5267 0 
14.7582 29.3091 0 
-7.32922 21.4118 0 
-41.9483 8.95531 0 
3.82421 41.3689 0 
25.0973 50.2693 0 
29.7466 -33.6118 0 
53.8944 28.8841 0 
16.8954 54.1737 0 
21.8066 25.5631 0 
51.2988 15.6712 0 
-34.7784 -3.05156 0 
13.8326 -20.6871 0 
36.3749 -42.7907 0 
27.8226 46.1692 0 
11.0664 24.6247 0 
25.1522 15.8311 0 
-31.4512 26.5825 0 
10.3327 45.9964 0 
-28.7847 -4.8885 0 
-16.4652 -18.7537 0 
-41.4761 -22.6895 0 
18.0674 -39.2035 0 
45.6823 12.8762 0 
28.6631 -9.11391 0 
31.6334 42.9849 0 
22.2558 -23.3024 0 
2.05289 23.2816 0 
-22.147 -32.6372 0 
33.9763 9.49782 0 
-34.2619 20.9221 0 
-44.4197 18.938 0 
-16.0016 -33.8501 0 
7.65671 -10.5106 0 
-37.2025 50.4448 0 
-18.0248 33.0204 0 
-35.1213 4.20575 0 
30.2327 37.6613 0 
18.3849 -10.8436 0 
-34.2988 30.6991 0 
-52.902 -26.0988 0 
-35.8878 -25.9914 0 
-3.13758 5.27216 0 
-14.5427 24.598 0 
28.4908 -27.4057 0 
-47.1252 12.4341 0 
14.0166 38.0095 0 
13.2531 -12.8374 0 
-35.8084 -16.6888 0 
62.8464 -0.104741 0 
20.6621 7.49821 0 
-51.8012 18.1803 0 
-50.4726 -5.67578 0 
-34.4976 6.84569 0 
39.3768 -23.3862 0 
7.51997 15.6979 0 
-24.5952 12.8145 0 
4.41881 6.87263 0 
-22.0464 53.0905 0 
-13.4766 56.5357 0 
38.4579 -3.38429 0 
-18.8679 14.5505 0 
14.4911 38.7292 0 
-16.7976 -41.0656 0 
-1.75593 18.9327 0 
32.8402 -32.4647 0 
-17.9438 46.1827 0 
-2.34611 -6.53814 0 
-47.606 23.5621 0 
-6.65786 -29.5826 0 
-25.1366 -41.3867 0 
-12.0954 35.0507 0 
13.012 -52.1281 0 
8.35476 32.029 0 
37.7348 -29.9811 0 
-42.3078 36.4766 0 
-5.23724 51.8161 0 
48.5907 -1.7126 0 
-6.07725 33.5713 0 
-17.7825 24.8367 0 
-34.5537 4.79428 0 
-10.9099 48.8944 0 
37.3196 25.6866 0 
15.5305 31.8446 0 
23.4044 -41.0696 0 
37.7237 31.2279 0 
35.9013 -23.856 0 
-39.914 -12.0162 0 
-6.31 29.9094 0 
-2.90268 25.8507 0 
20.8891 -3.03317 0 
-38.6878 29.3067 0 
0.839978 -51.0528 0 
31.6863 -45.9224 0 
25.7921 -49.9949 0 
17.6777 31.5901 0 
-10.8628 8.42556 0 
-31.0954 14.677 0 
-26.8946 -21.5324 0 
-49.6377 -7.729 0 
-2.07658 27.2907 0 
-24.2357 -8.87082 0 
-50.0413 -2.34769 0 
28.548 -14.2977 0 
-40.9506 19.6971 0 
2.33589 16.2451 0 
-6.78893 -27.6193 0 
-12.2942 23.4562 0 
-36.1913 36.7401 0 
-12.6508 -56.9867 0 
22.0162 -26.0641 0 
-46.0564 -23.5977 0 
34.4485 -13.61 0 
8.96703 -26.2755 0 
-11.5463 -29.8418 0 
-38.3676 -8.05118 0 
13.0471 -39.2231 0 
33.9592 -2.41404 0 
-18.8698 -17.7943 0 
-26.6832 -40.9565 0 
-47.094 -33.9124 0 
-33.5179 20.9369 0 
27.5689 -1.8032 0 
4.25834 -21.0745 0 
19.6123 -13.0247 0 
-11.5235 11.7677 0 
0.360157 54.4862 0 
16.0048 -52.1988 0 
35.0186 -18.1554 0 
-16.5165 34.3086 0 
-21.8264 -33.4293 0 
-31.343 -47.9869 0 
51.059 25.9557 0 
19.8665 11.9184 0 
37.3239 37.6135 0 
-20.2184 -28.0152 0 
-31.9971 26.3749 0 
-24.255 -50.2186 0 
-7.51372 -6.12042 0 
12.8782 47.0355 0 
-45.2953 0.664926 0 
-13.1464 52.1757 0 
45.4598 41.247 0 
0.576147 -57.2571 0 
37.5941 44.7469 0 
-9.77764 49.1381 0 
11.536 41.1681 0 
17.9189 -43.9836 0 
50.1732 7.58345 0 
-38.9024 -17.0582 0 
-5.87126 -31.4843 0 
-3.9201 21.8692 0 
-21.4771 19.6159 0 
59.7926 8.03251 0 
52.9147 -10.4314 0 
-13.7081 -33.4877 0 
-0.75317 31.5522 0 
14.2063 46.7819 0 
-6.6873 -35.4525 0 
12.1316 56.2552 0 
8.83534 24.8353 0 
-8.73927 -36.292 0 
-8.68105 55.2567 0 
4.92657 51.8566 0 
-57.6343 25.5424 0 
9.46327 38.7656 0 
1.90364 16.609 0 
41.8105 27.4721 0 
26.7515 30.4923 0 
2.65314 44.9518 0 
-10.799 42.2945 0 
-53.1655 4.64234 0 
15.7122 -32.9206 0 
17.9167 -6.04576 0 
-55.3544 0.66129 0 
-19.8863 15.241 0 
-7.01776 -16.0403 0 
34.956 -11.8346 0 
42.6909 -41.4726 0 
28.7086 -26.6272 0 
35.593 -7.8734 0 
-4.41375 49.355 0 
27.6796 2.20457 0 
6.53333 -43.3197 0 
-42.9229 41.4237 0 
-11.9954 -9.92066 0 
8.00037 -25.9609 0 
21.7158 -35.6754 0 
-29.7396 0.732909 0 
19.7788 -13.7299 0 
-43.4564 -36.1759 0 
-46.2127 -35.5256 0 
-29.0806 -30.4208 0 
21.878 31.0739 0 
21.3872 -22.1555 0 
58.3768 -16.8051 0 
-53.0743 33.427 0 
-49.9419 -7.39923 0 
-22.6857 18.6643 0 
-49.4184 31.5428 0 
-35.1331 -33.2037 0 
24.3722 -45.0442 0 
50.5947 8.02677 0 
48.5734 34.97 0 
13.912 46.7998 0 
-2.2443 20.7818 0 
-61.8308 -7.93626 0 
-10.3273 6.67256 0 
-22.4932 -56.4644 0 
-35.1379 39.1787 0 
-15.8346 -41.3426 0 
-17.6989 6.64042 0 
31.044 -52.9662 0 
8.27414 -13.2154 0 
-22.7742 39.069 0 
-47.7972 25.9822 0 
44.4472 -36.3652 0 
-52.2582 15.475 0 
15.548 -35.4316 0 
-0.0693669 -46.1502 0 
-9.80001 -51.728 0 
-46.1294 -7.89684 0 
-22.6083 7.12832 0 
-51.111 -9.37697 0 
3.94386 19.2423 0 
-9.78357 41.1107 0 
49.6615 32.6687 0 
57.2154 20.5102 0 
0.574089 -0.694251 0 
-2.05834 -22.0157 0 
-22.103 -53.5624 0 
-0.38942 54.1892 0 
14.371 34.851 0 
3.82634 -21.8653 0 
-39.6847 -38.2662 0 
36.0698 -41.1617 0 
0.372092 -38.5284 0 
-12.2917 13.2408 0 
3.63748 -6.45324 0 
31.8265 30.9986 0 
-29.1133 28.3057 0 
14.8195 9.63601 0 
10.6424 61.7179 0 
-17.1754 -60.1183 0 
-31.4546 18.0428 0 
42.4007 26.249 0 
43.1372 -7.43235 0 
-10.2197 35.7865 0 
-31.9752 38.7409 0 
59.0814 -16.5723 0 
-5.81676 4.2809 0 
9.60306 32.8059 0 
56.9471 -1.85485 0 
18.8107 -9.51472 0 
-41.4473 2.26356 0 
-53.0858 -27.0192 0 
-34.5926 -21.5437 0 
-12.4902 34.7332 0 
52.0299 -5.8361 0 
40.2261 -29.1545 0 
-18.6472 -26.2817 0 
51.1576 -23.9567 0 
-56.3944 19.0787 0 
2.09847 -33.3997 0 
-53.8969 0.718787 0 
32.2199 43.0816 0 
-25.6352 12.6867 0 
-6.16513 -43.3444 0 
12.3218 22.6972 0 
-40.8866 12.363 0 
38.0422 27.7058 0 
31.4831 20.3127 0 
-28.0891 20.9259 0 
-44.6291 18.4899 0 
-29.3983 -47.9131 0 
-6.40197 0.488642 0 
-0.0508733 9.92881 0 
-47.8555 -8.67288 0 
40.2902 -35.4759 0 
-34.3615 -42.2627 0 
21.6172 37.8137 0 
-44.901 -36.5268 0 
25.6992 14.3596 0 
47.106 19.9093 0 
-58.4292 8.93685 0 
-41.4798 -26.9035 0 
-6.42019 -11.1406 0 
-39.1287 30.4147 0 
8.29307 15.3724 0 
19.18 -30.6339 0 
36.0044 34.076 0 
-45.8138 14.294 0 
-11.2541 8.82921 0 
-22.5201 -1.07642 0 
-61.6376 -9.30895 0 
-45.5589 -42.9747 0 
6.55794 -7.22452 0 
-22.5693 34.4966 0 
44.2233 1.21536 0 
-12.2204 -19.8653 0 
52.9332 4.07683 0 
26.2235 -54.9646 0 
46.4924 8.89755 0 
-40.7131 36.3894 0 
-26.7408 -22.4102 0 
18.8165 52.1265 0 
-28.5105 -25.3199 0 
-12.9319 -19.7596 0 
40.1244 19.7685 0 
-40.1176 -16.5298 0 
51.1274 -6.91988 0 
-23.2507 46.4455 0 
1.96491 40.3833 0 
-13.8728 -51.2976 0 
20.4881 -22.2368 0 
18.8607 -30.8439 0 
14.3713 -21.3801 0 
-5.76451 -42.7493 0 
19.5538 10.7604 0 
-38.3184 -11.7742 0 
-27.8069 -20.7066 0 
36.418 45.4405 0 
-25.1344 32.687 0 
-46.4543 13.875 0 
13.0134 -24.786 0 
-38.5479 49.393 0 
35.0563 45.0305 0 
29.0034 27.2817 0 
56.7875 21.2408 0 
-32.0097 -11.6882 0 
8.23793 -53.7869 0 
16.2948 -27.4048 0 
11.2235 14.838 0 
-14.4194 -61.0952 0 
-9.57014 -21.3474 0 
-1.00811 -22.849 0 
40.8309 -28.2156 0 
15.9594 -17.9883 0 
3.69689 24.577 0 
14.3215 37.5899 0 
-19.2605 52.7333 0 
14.1234 -20.8166 0 
-10.7904 -6.17894 0 
12.1708 -50.2396 0 
-8.14476 -5.67987 0 
-14.2947 -46.6851 0 
28.883 -7.7715 0 
5.48842 -14.024 0 
-8.32717 -26.4223 0 
23.0245 2.44138 0 
36.936 -43.8785 0 
[...]
<CellData Scalars="wall variable 0">
<DataArray type="Float64" Name="wall length" format="ascii">
0.991894 6.32497 2.08083 5.26474 2.23398 3.73299 1.02021 2.32313 3.04052 0.616258 3.44164 1.09784 6.31642 3.37387 6.88472 1.62243 1.17241 6.33059 5.02949 3.31473 5.00659 1.29465 2.56823 0.500737 7.13039 1.15503 3.17218 4.4283 1.62166 2.02485 6.77987 0.694372 2.60769 7.95715 0.862424 3.12185 5.12679 4.1362 0.508093 0.868614 7.61307 2.82745 5.5294 3.41676 5.17003 2.02485 0.256316 6.39739 1.00964 1.20385 1.11354 1.25926 2.18219 6.11835 3.78201 0.674855 2.82669 1.92862 2.9666 4.59598 1.015 4.96506 0.655116 3.61041 3.13747 3.03697 4.83066 1.80547 2.79067 2.86825 0.159454 7.336 0.533443 8.83996 1.75602 1.36957 0.76527 8.02373 2.54717 1.129 3.71329 1.12834 0.614632 2.24346 5.54858 4.33419 0.520443 3.2562 0.603367 5.39767 1.04487 0.418823 6.19349 1.21591 4.06986 2.85734 3.18333 0.21927 6.78365 0.945878 6.09072 1.60108 2.92712 3.23461 2.7086 1.35805 2.10012 0.375304 3.36224 3.09533 1.90418 6.76873 1.69638 1.44598 0.663721 4.33419 3.46049 8.11843 1.17645 4.38291 2.97801 1.33689 2.00004 8.70198 0.296225 0.425076 0.544972 2.81704 1.99096 4.07069 1.34487 8.79773 0.184321 2.58709 5.24802 1.14124 2.02338 1.60406 9.58499 3.41563 6.15148 5.12499 1.09784 2.21363 1.51356 4.06841 0.649788 1.07632 2.27185 0.894902 1.86302 6.12061 2.09605 4.32547 0.556992 4.83484 6.95076 0.736733 6.76873 4.59322 7.70735 1.00831 2.91591 4.36147 0.936333 1.85209 2.64241 9.46692 2.35348 3.50564 1.33931 2.55229 2.06254 5.56518 0.669006 9.7197 0.383785 2.74368 8.17892 1.15568 4.84321 4.34463 2.82884 3.00602 1.16613 1.35361 1.73158 6.44298 3.40522 4.03091 4.58091 2.87056 1.69322 7.33632 0.987957 10.5301 0.924163 7.5911 0.654103 0.474122 3.95648 2.73032 1.80778 1.72282 2.24796 10.5301 1.71341 1.4797 7.62367 1.69119 0.725474 1.09172 4.49206 1.94717 2.27178 2.51554 8.17234 0.341706 5.75219 2.09605 1.28892 5.65014 2.90505 0.871793 7.33632 6.23205 5.61467 0.175454 6.82856 3.6556 1.84074 0.478134 4.27526 0.707661 2.42411 3.7668 3.84231 0.43309 1.14124 7.1208 1.49611 0.383785 3.45342 5.60769 3.47883 7.55603 4.07069 2.16228 3.70281 3.85712 0.96965 3.1212 3.22328 5.70624 1.85209 1.24179 9.04274 4.27526 3.96662 5.17733 6.65682 3.00602 0.200175 1.27749 5.28189 3.6556 1.30186 3.07507 3.18101 3.48235 7.62367 6.44863 1.22554 4.52582 0.542951 7.19894 2.33892 1.11137 2.71983 4.73955 0.714386 10.889 0.901364 1.11137 0.771843 8.94825 1.96186 6.93156 5.29768 0.933378 1.02021 5.07613 1.68596 0.636194 6.71739 2.09887 3.55355 5.23711 2.45474 4.86326 2.82745 0.483991 1.61373 8.38753 5.10138 2.56232 4.3523 0.251585 2.16018 7.39626 0.995048 4.03091 1.20969 2.89037 1.33009 8.9826 3.84871 6.23725 2.80694 3.85038 0.88076 6.22612 3.74386 0.380386 3.4234 3.23461 1.41343 2.35323 6.16187 2.48866 3.7668 1.50998 1.45701 3.36224 6.8875 1.84074 5.28189 0.593012 3.82511 7.17941 3.96003 1.05392 0.799834 0.976395 8.94363 1.67321 2.55631 6.10441 3.64407 6.03798 5.04464 2.85333 8.94825 2.0276 7.6352 0.728132 1.4458 1.1519 4.73955 1.54095 3.46049 6.19349 0.875718 2.81979 0.972351 3.34064 0.952294 2.51554 4.69356 5.14629 2.61183 3.71997 1.12834 0.748311 6.51848 0.758344 3.24561 7.26555 2.24832 8.05623 1.34359 2.31359 9.28116 4.3523 5.20137 6.10441 2.05924 1.02274 0.665581 5.87356 0.862424 4.86535 0.964511 2.43636 5.34148 3.123 6.34087 0.301574 2.44236 4.24729 1.56325 1.9081 2.51309 10.1128 1.4458 9.94555 1.12956 0.308866 1.35805 6.06726 3.51986 2.1191 2.36306 0.745222 8.41961 0.962927 5.82679 3.18333 4.89634 5.5882 1.72129 0.834626 2.72045 3.27493 0.443539 2.05412 6.63485 1.97171 1.21721 2.8232 1.57485 3.01261 5.72559 1.44598 7.68176 3.76966 0.478163 4.77845 5.60775 5.95184 1.29903 4.83066 1.3775 4.28857 4.36147 8.71748 1.79162 10.0043 1.00964 8.32431 1.45701 4.07363 3.58479 4.60727 0.649326 5.40493 3.70643 3.46425 4.24368 2.05924 2.55631 1.08853 2.8414 1.24924 7.68666 4.77845 1.79561 1.74902 3.06939 2.8414 5.76654 2.86825 5.70297 4.79453 2.94355 2.72042 2.91671 2.82669 4.22845 1.01198 0.838962 6.72283 2.63301 9.04253 2.27716 0.379524 5.72297 0.666917 1.61807 7.09021 1.19699 4.51257 5.67104 0.665581 0.200684 6.94395 1.91543 0.533443 0.362432 0.683875 1.05392 6.19249 1.6178 0.367482 3.07968 4.64569 4.32547 5.75219 0.497345 0.200175 2.82884 5.10992 3.49627 0.388472 9.6082 1.94901 5.54858 4.47424 0.598849 2.15518 1.35459 0.479915 6.7466 0.734917 6.03798 0.771843 2.33892 4.87376 3.22548 0.654103 4.14471 5.23631 0.580743 7.32198 0.813448 4.60727 4.99204 1.34896 4.35421 0.567274 1.20385 4.48851 5.14453 5.18863 2.95559 2.63174 0.298779 3.62831 3.50602 3.45506 1.79735 9.04253 0.99185 6.23205 1.69322 2.66979 0.445295 1.03081 8.87838 1.24983 0.748143 3.01292 3.31343 1.21356 4.23908 6.09072 5.47074 2.80655 0.447862 4.14471 7.5911 2.88177 1.30545 1.11354 0.567274 4.697 1.21356 5.56485 1.28892 6.95076 0.986188 0.862806 5.26474 3.07543 0.605599 1.35459 5.73085 1.86537 1.691 2.6333 6.92249 0.394841 8.24138 0.641279 0.725879 4.33808 3.01261 3.37001 0.89787 4.58091 0.995048 1.67725 1.40756 0.339493 0.460391 9.26756 1.59706 4.28619 0.748589 0.548354 4.13573 8.24138 0.614632 7.26555 0.587346 4.66841 4.58644 4.05258 4.4946 5.22077 7.66652 1.12478 7.55603 1.78134 4.00348 0.986188 4.83484 1.36136 3.20165 6.56554 2.79269 0.673099 0.978176 6.7464 2.83315 1.29666 0.964511 1.18618 5.14117 0.575408 6.80009 5.38034 6.24634 0.387342 3.20165 1.0333 2.47445 1.67725 8.9826 2.11911 3.0145 5.97106 5.07613 6.31642 5.12499 0.569108 0.610105 2.89262 4.7869 0.598939 2.0276 2.71983 0.901364 2.87758 2.93452 7.07526 6.05464 5.12679 0.582561 8.19956 6.19249 3.96003 0.440364 0.308866 0.472383 4.03745 0.184321 1.65106 7.4599 5.61396 0.43309 8.03521 0.982566 4.77816 0.820058 2.47228 0.516482 2.02338 3.96459 8.34712 2.25743 3.92589 2.96554 1.60108 4.23908 4.697 4.35421 6.47024 5.67104 1.66797 0.356447 2.93452 3.12185 5.87356 0.638246 8.38753 3.59108 0.737814 1.62243 4.17641 4.23132 0.301574 2.66031 4.93577 0.917205 5.54154 3.01755 7.07218 1.87353 3.18453 3.42824 1.72703 0.148254 7.71025 2.17093 3.44914 5.5882 7.4491 4.53081 0.689967 5.1913 3.99745 1.33931 0.437324 9.6082 2.32386 0.600707 1.37413 7.02551 2.23826 6.51898 4.21187 0.241368 7.77962 1.08383 6.95775 0.62673 4.67115 3.01345 2.38228 3.84231 2.48866 3.92425 1.73386 8.03521 1.78729 4.49206 3.78203 1.42743 5.68734 4.68786 5.88076 1.17962 2.61 1.56596 2.38412 0.619033 0.273474 4.08566 7.33452 9.60437 1.37099 6.23429 2.95559 0.215189 0.863736 0.817069 9.37184 3.85071 0.681833 2.63174 6.23429 4.67299 2.67948 4.73115 4.27564 3.37001 1.57485 0.288372 6.69215 2.55202 3.30909 5.23711 6.64378 2.34092 3.15936 6.95775 0.846413 6.78365 0.566337 3.99078 2.15279 3.97837 1.71875 1.00427 1.32027 1.39496 1.19349 5.53604 2.44213 6.0854 1.02274 7.68666 2.13657 1.7486 5.55106 0.251585 1.6538 2.55202 3.0123 3.42824 6.95827 4.29726 4.47424 2.24346 4.58644 0.760216 4.93577 2.81508 3.35195 0.838962 4.62172 0.379524 6.93664 3.30606 9.36418 0.362432 8.02373 5.65605 1.39582 2.7872 7.00699 2.82239 1.691 0.433067 5.59372 2.31107 3.123 1.30254 2.868 3.89569 4.16312 2.34261 6.52093 0.962927 3.44914 3.20588 6.65682 1.34445 3.70742 1.48722 5.37408 2.07318 1.16613 3.74411 5.99108 2.84747 8.21412 3.28896 6.48958 1.14052 0.636194 3.30909 1.6538 0.485115 1.65106 9.58499 0.956826 1.9135 0.817365 7.33452 0.556042 7.93463 1.32027 3.79542 1.94717 1.78729 6.24061 2.23708 0.572493 0.952117 2.82997 3.65222 0.46696 0.542951 1.1519 10.1128 4.50799 1.07255 4.93749 0.569108 6.15148 1.78786 4.28776 5.47074 0.924163 1.4135 0.52031 2.84747 5.78577 1.85959 4.38765 6.97278 3.25566 7.04031 4.13745 3.29418 2.05412 2.32279 6.65841 4.10561 2.319 1.34359 1.19699 2.49672 3.09533 0.593012 1.27749 4.09696 3.81253 0.598939 3.24675 3.34202 3.45417 0.524863 7.6352 0.826509 2.21363 3.44164 4.322 6.94395 4.86535 7.61307 0.719334 0.735614 5.65369 1.18618 3.0145 0.410249 3.08471 1.16961 1.0449 3.61041 4.09861 5.23631 0.447862 1.11271 1.29465 5.95496 4.2566 0.256316 7.95715 2.15548 0.796596 3.45506 2.97274 0.483991 2.69646 7.72985 0.968852 1.87032 5.02665 0.582561 2.26297 0.474122 3.22548 0.383839 1.60694 1.51445 2.26006 6.13447 0.367482 0.407572 7.26173 0.894902 2.21995 0.363953 9.31409 0.932223 1.88499 7.4599 0.556042 4.08566 7.21892 3.16871 1.96559 0.972351 4.56988 4.17641 6.88472 0.708634 4.96581 5.17791 3.66076 1.35494 4.24368 2.34261 6.77057 2.64628 4.07402 4.48851 0.681833 0.796398 0.650588 3.70643 4.40703 4.70375 8.46947 1.03081 1.68502 1.72459 6.94073 4.06841 1.81576 2.6047 2.41136 3.21681 0.817069 6.06227 4.77794 2.80694 1.21186 8.11843 1.54095 4.69354 4.99584 1.91361 6.11835 5.70808 1.00831 1.10951 2.38228 0.845121 7.11357 1.10992 3.69217 1.05363 4.78502 4.84321 3.5463 6.07846 5.78577 1.35863 2.12337 0.572086 5.65605 1.86537 3.2135 0.433067 6.01188 0.516482 8.80401 1.39582 0.572086 0.0645271 6.66659 0.956826 1.60406 0.726052 7.77962 0.863304 1.38378 0.854904 4.33727 2.15773 1.38388 7.60913 1.8393 1.84329 2.52531 1.34445 5.17733 3.2135 5.73085 2.15518 3.17293 5.59372 1.57783 1.54875 2.70145 2.0811 1.06646 1.30186 6.82856 0.0645271 6.01188 3.89569 1.40982 0.436483 4.10561 1.72521 3.59108 1.61373 2.97274 3.50602 6.22547 6.31808 0.884793 4.20399 6.25148 0.0180788 8.17234 3.71997 2.43074 2.41557 6.65273 0.16083 3.94654 0.7588 4.95196 2.61954 0.665833 6.1753 3.42495 2.44236 4.23132 0.952304 6.50099 1.35863 6.97278 0.488837 4.99584 3.84812 1.65126 0.816962 2.45516 3.20588 2.17093 1.1362 1.84483 6.97226 5.97106 4.09861 0.655116 5.83698 1.40756 5.39767 5.78786 3.34202 2.29511 0.580743 4.2566 4.72569 1.30254 1.9081 0.518363 4.66611 3.11436 6.03174 1.37413 3.4728 4.95196 2.13657 1.24924 3.06939 0.470323 3.96459 2.43252 0.871177 5.63293 4.8665 2.15548 2.60769 1.54346 7.07218 5.17003 0.938836 0.714386 1.62356 2.16769 3.60248 6.77987 1.20969 3.40522 3.24305 3.07507 1.06646 0.804377 9.09189 2.83315 0.971575 7.00699 3.29188 5.21082 6.11941 2.89037 9.09189 1.12223 5.84438 2.34931 1.57235 1.80778 6.77751 0.799834 0.683875 9.36418 0.796398 3.85071 4.66577 0.566337 0.21927 5.82679 6.52093 4.17121 6.48977 0.536293 1.84665 6.93156 2.68674 2.28031 6.1753 2.87968 1.17962 0.76028 6.33059 0.0180788 7.66711 5.32516 2.79269 3.70241 0.725474 1.7486 5.63293 5.16075 2.6047 4.28672 5.60775 5.76654 1.08853 1.67321 7.55979 0.520443 0.663721 5.72297 4.62172 1.01198 8.06181 7.21892 0.273474 0.208027 2.24832 0.47666 3.39892 4.99722 1.43963 6.72283 3.35195 1.04741 6.31808 1.1258 0.462219 9.37184 3.21681 0.246349 6.18012 2.72591 0.473747 4.67115 2.89598 3.92425 6.16187 0.978176 4.50552 0.546392 5.11097 2.3321 0.735614 8.67274 1.48867 0.982566 1.73386 2.89598 0.62673 3.15936 7.95723 0.742459 1.95987 2.1946 1.02447 4.4946 0.944964 5.48934 2.91591 5.70808 2.18219 1.59552 1.75186 8.71748 0.388472 6.86294 0.377809 6.32497 2.07791 2.32386 1.24745 5.14629 5.90548 1.71875 6.16134 4.33176 1.41782 1.33784 3.02611 2.83724 6.06227 0.863736 9.49219 0.47666 9.28116 3.3495 5.02949 1.54067 1.5888 3.22328 5.17399 2.21995 2.27185 2.63487 1.34487 0.665833 5.4641 4.99206 2.61 2.87968 1.84665 1.22929 6.51898 0.726052 0.384216 6.07613 5.29768 3.08201 6.63807 2.13937 1.82005 4.4283 4.33727 4.33205 1.68502 0.445295 7.78963 4.19975 1.91352 4.90872 2.18861 1.61807 5.34148 0.200684 9.31409 2.72941 4.50799 3.41563 0.826509 4.51257 3.81253 6.85919 0.55567 1.66797 4.46826 5.56485 3.31343 4.28649 3.16871 4.99722 1.39869 3.74411 0.405881 1.71341 0.987957 0.871793 0.982497 2.38412 6.26133 2.23398 0.862806 4.00348 0.520431 1.62458 6.155 0.295339 0.758344 6.63343 4.82436 2.6636 8.79773 2.63487 1.07632 7.6737 0.822033 6.88863 2.76209 0.665021 5.4257 2.77598 0.587346 3.24561 0.295339 0.405962 1.87353 1.54346 0.694372 3.60248 5.09359 5.47982 4.61617 3.07543 2.08083 0.377809 3.40027 0.770002 1.564 2.63532 1.51445 8.17855 2.04756 6.7466 1.3775 7.336 1.36505 0.919654 1.92256 1.74635 5.38034 1.08117 1.9225 3.85158 3.68557 0.649326 1.35494 8.48795 7.30301 6.63485 3.29418 0.710621 0.546392 4.51582 0.944964 4.05258 0.455782 0.993337 7.13039 1.88477 1.80547 1.29903 2.81674 1.054 0.460391 1.91326 5.77397 0.854904 6.65578 1.12293 0.708634 3.46425 0.650588 4.33205 2.72042 8.82957 8.2409 1.36505 0.159454 1.92256 11.1667 1.39496 7.93463 0.976807 1.25966 3.15701 4.59598 4.57721 2.23826 2.39153 2.71236 6.49117 1.129 0.651413 2.04132 3.25566 0.443539 2.56232 4.02222 0.743572 2.79419 3.64407 5.20137 0.936333 10.0043 1.40449 7.4491 3.50564 0.406353 1.24179 4.95588 2.02767 2.77598 4.57023 4.96581 1.12293 3.65222 6.74436 1.564 0.479915 6.38753 1.32617 2.43074 2.61183 1.24745 0.321942 1.24703 1.1362 7.71025 6.44863 1.4797 0.405881 8.21412 0.52031 2.44812 2.90818 3.68557 0.880594 2.24813 4.40703 5.40493 1.56596 4.99206 1.16912 3.73299 6.26133 1.59769 2.70361 2.58709 4.03745 0.447966 4.73115 0.46696 6.38753 4.87376 7.19894 0.687137 7.33138 0.192554 1.72459 5.16075 0.871177 6.09303 2.38733 5.53351 1.83804 0.246349 2.41136 6.23725 1.73257 6.26011 2.41557 1.32617 0.148254 4.89634 2.85734 0.919654 8.2409 0.915908 1.47153 1.33107 1.19349 11.1667 3.55355 6.34864 2.25631 4.20399 0.838747 0.288372 1.98029 5.22077 1.02447 2.40404 9.1857 1.69638 1.21186 0.488837 4.38765 0.62504 4.01277 7.68176 0.982497 5.61467 0.99185 3.21582 4.28619 2.84242 0.932223 5.86556 0.296225 2.6636 4.43542 7.33138 7.32198 4.66611 12.461 5.66953 1.04487 2.29511 3.24675 4.7869 0.674725 5.96543 6.65273 6.26011 2.04132 7.35126 3.59652 0.601075 7.04031 0.387569 6.50099 1.66226 5.04464 0.734917 2.04756 1.79423 0.716858 6.93664 2.27716 1.79735 0.796596 4.8665 3.01755 2.27178 3.79542 1.00427 5.90548 4.69356 3.17508 1.42444 4.28857 1.08117 2.47445 4.04261 0.508093 1.85941 5.72559 4.33808 5.49342 4.78502 0.605084 0.770002 2.54295 5.10992 4.34463 6.16134 6.0854 1.85386 4.19795 1.39465 4.50552 0.673099 5.32516 1.4601 1.27983 1.72129 7.30301 4.16312 2.45516 3.73261 2.0157 6.77057 1.84329 1.60993 0.88076 3.14265 2.7734 5.3746 0.437324 4.57721 2.9666 3.77217 1.76541 7.60913 3.96662 0.497345 1.73175 3.2562 7.55979 8.94363 5.21082 1.72959 0.820058 4.9718 1.91352 3.24139 0.589006 2.45474 0.638246 4.56988 2.81979 8.58185 0.455782 7.66652 1.98029 0.232531 1.79561 0.478163 8.11054 0.16083 5.96543 4.16306 0.771652 1.4601 7.66711 3.72457 7.56363 2.97767 4.68786 0.863304 0.241368 6.56392 2.16223 0.653012 0.822033 2.02767 5.0911 2.16018 5.55106 4.28672 1.81576 1.51356 2.53917 1.86146 1.53096 1.9135 6.66659 1.72521 6.65841 1.38378 5.0911 4.95588 6.65578 2.79067 1.88477 3.97791 3.39632 1.02526 5.70297 4.86326 0.589006 2.04042 4.61232 5.5294 1.13589 3.22549 1.51289 4.57931 3.62658 2.88177 4.46826 7.01724 3.18101 3.24305 6.44298 6.03562 0.685018 3.45342 9.7197 2.20445 2.72045 4.27646 2.23922 5.6394 3.85038 4.77794 2.83724 1.06339 4.14693 0.408131 3.14265 4.16306 0.674725 1.73257 4.06986 6.73872 2.8232 6.52909 0.707661 3.29556 1.59769 2.67948 0.603367 1.73175 0.976395 2.79419 1.71019 3.45417 5.78786 1.91543 4.322 0.616258 3.44623 8.83996 1.79162 1.75186 5.86739 1.51035 4.53081 1.40449 5.36268 1.57783 0.175454 9.04274 0.406353 2.35348 5.09381 1.3568 3.85712 2.56337 4.13846 5.9827 3.4234 4.54619 6.06726 2.7086 0.548354 3.34246 4.70375 2.24813 4.4667 6.37761 0.977939 0.672671 3.08201 3.17218 1.69812 0.62504 1.85959 6.07846 2.86004 8.70198 2.0101 4.38848 4.17121 0.469086 4.79471 4.82436 2.60161 0.594374 2.71236 3.27493 2.20445 6.7464 8.67274 0.719334 0.868614 4.04261 1.0333 0.632744 9.26756 1.054 1.53884 0.729304 7.07526 0.356447 0.55567 2.31107 3.17293 0.598849 4.29726 2.66031 6.34087 2.868 4.72569 5.95496 5.00659 5.7192 1.40982 2.04042 8.58185 0.875718 0.418823 5.66953 2.89262 1.0982 0.765945 3.11436 0.7588 0.828525 0.298779 2.63301 2.16671 5.89212 0.380386 4.51994 1.9225 0.319507 1.33294 3.51986 4.54619 1.66226 0.952304 5.54154 3.67832 1.62356 1.96186 2.85333 3.39892 1.5888 4.22602 1.78786 5.99108 1.39869 4.9718 4.77816 1.48867 1.46911 2.06694 4.90872 0.672671 3.01374 6.03562 0.669006 2.2011 6.63807 6.24061 5.68734 5.12994 0.976807 2.0101 2.00004 10.4074 2.46613 2.16223 0.897372 4.47088 2.65211 5.89212 3.17115 3.78201 3.15701 0.632744 6.85919 4.09696 3.48235 7.01724 1.73158 0.89787 2.61954 3.4728 0.600707 2.07791 0.991894 1.16912 5.4641 1.53884 2.81674 5.95184 1.42444 8.44688 0.813448 12.461 0.518363 1.56325 6.22458 5.20604 0.383839 2.97767 0.331416 3.34064 1.96559 3.37387 0.76028 5.88076 0.641279 4.13573 6.37761 1.00039 6.22612 0.921479 3.69719 0.845121 1.35361 2.07318 2.49763 5.16072 0.80611 2.23922 2.62177 3.97837 1.47454 6.48958 0.666917 8.06181 4.22845 0.674855 3.17115 2.16671 5.57275 1.10437 1.06264 1.17645 2.86004 6.70516 1.69119 4.52582 4.01269 0.717302 2.14067 0.384216 1.38388 2.24276 1.74635 1.25966 5.12994 1.42743 3.5057 6.24634 2.60161 6.63343 6.51848 5.85878 2.06694 1.6317 4.59322 1.90418 2.49672 7.09021 2.18861 3.21582 8.87838 8.46947 3.34246 0.748589 2.09887 0.627162 6.18012 1.83804 1.04441 6.34864 0.729304 8.44688 3.17508 4.1362 6.05464 0.993337 8.11054 3.76966 4.01277 1.69812 1.15503 2.47228 1.72959 3.29188 2.7872 8.80401 1.10951 9.46692 1.9662 2.10012 0.736733 0.369442 6.64378 1.08383 0.208027 9.60437 0.817365 1.53096 2.32279 8.05623 8.16076 6.13447 4.15109 0.952117 2.52531 5.3746 0.910664 3.89811 3.70742 1.12956 10.7463 4.02222 5.10138 0.300499 2.69646 0.472383 1.00039 4.4667 0.880594 3.85158 4.51994 3.74386 2.14067 7.36228 2.32313 0.933378 6.07613 0.737814 6.22547 3.62831 0.828525 3.94654 2.28031 1.17241 1.27013 3.84812 4.69354 0.952294 0.331416 7.56363 0.575408 5.26123 5.11097 0.710621 4.13745 0.601075 1.55216 1.1258 6.25148 2.25631 1.04441 5.53351 0.623322 1.42866 2.65211 2.39153 7.02551 6.03174 0.765945 0.852392 6.70516 0.469086 2.68674 1.68596 0.610105 4.93749 1.45572 4.66577 4.67299 1.37099 0.462219 2.64091 3.99078 6.11941 3.24139 4.19975 2.43636 1.29666 1.46911 7.95723 2.34092 0.369442 7.70735 1.6317 6.22458 4.24729 3.42495 0.387569 5.69638 2.94355 0.790662 5.08559 2.73492 0.915908 8.82957 2.15773 7.78963 2.66979 2.87056 2.24796 2.24276 5.60769 0.685018 3.01374 0.977939 3.5463 4.6373 5.14117 5.65369 2.3321 5.26123 2.54717 1.94901 6.92249 1.15364 7.35126 0.651413 0.447966 5.61396 1.88499 2.84242 1.59706 0.394841 4.27564 9.94555 0.728132 0.524863 1.71019 0.743572 10.7463 3.47883 4.6373 2.12337 1.65126 1.27013 3.72457 0.619033 0.520431 1.78134 0.485115 6.95827 3.18453 0.405962 6.155 1.13812 0.938836 3.41676 4.61232 1.0982 2.87758 10.889 4.22602 1.54067 2.56823 1.11271 2.80655 4.28776 1.76541 5.96254 0.623322 2.38733 3.84871 1.60993 1.8393 0.717302 1.9132 1.75602 3.44623 3.04052 7.36228 2.82997 4.15109 2.26006 2.63532 6.74436 3.97791 5.77397 5.61948 1.015 1.34407 5.02665 5.55567 0.407572 1.6178 8.19956 1.59552 1.25926 1.30545 3.62658 2.81854 5.86739 2.96554 6.81294 0.862722 1.20864 6.09303 2.43252 3.29556 7.1208 5.24802 2.70361 2.44812 1.4135 1.72282 1.57235 3.30606 0.76527 6.60302 4.79471 5.6394 0.80611 3.28896 1.13812 1.62458 2.53917 6.12061 5.84446 0.968852 2.58817 6.77751 2.73032 5.04236 0.977366 3.82511 1.47454 2.15279 2.64091 2.72591 0.627162 6.71739 1.14052 0.319507 8.48795 3.66076 0.221702 5.56564 3.15686 4.21187 1.22929 0.536293 4.66933 0.897372 6.56392 0.96965 5.9827 2.0912 5.57275 0.852392 2.58949 0.594374 5.85878 0.748311 3.71329 6.49117 5.20604 5.69638 1.79423 8.17855 1.60694 0.387342 3.5057 3.78203 1.09172 3.70241 6.56554 2.90818 6.60302 1.36957 1.9132 4.01269 1.22554 4.66841 5.09359 2.16769 3.67832 0.917205 0.760216 0.375304 1.9662 2.64241 5.70624 0.478134 6.8875 3.01345 0.473747 2.35323 8.32431 6.39739 1.91361 2.92712 6.47024 1.34896 1.92063 5.49342 0.725879 0.921479 1.41343 0.971575 6.80009 1.55216 3.59652 1.15364 2.6333 2.82239 0.771652 6.73872 1.21591 0.846413 2.62177 4.27646 0.834626 1.27983 1.87032 5.84446 1.86302 7.26173 5.55567 0.572493 4.74247 5.04236 3.95648 2.26297 8.16076 4.38848 4.47088 4.66933 6.48977 3.3495 2.31359 2.319 0.436483 5.7192 3.31473 3.1212 2.58949 1.45572 1.07255 2.72941 0.363953 5.17399 0.838747 0.884793 1.04741 2.81508 0.716858 1.72703 3.0123 6.69215 3.77217 1.92862 2.91671 1.43963 1.42866 5.96254 1.21721 2.59952 4.07363 1.50998 2.42411 6.52909 3.58479 2.59952 1.97171 1.85941 1.92063 4.99204 0.192554 4.43542 7.6737 0.649788 6.94073 0.300499 7.39626 1.86146 2.58817 7.72985 5.61948 1.91326 0.339493 5.83698 4.96506 0.977366 4.74247 2.23708 2.51309 0.