<VTKFile type="UnstructuredGrid" version="0.1">
<UnstructuredGrid>
<Piece  NumberOfPoints="    3035" NumberOfCells="    2244">
<Points>
<DataArray type="Float64" NumberOfComponents="3" format="ascii">
-33.8768 -26.3683 0 
5.14682 5.99844 0 
27.5884 -3.34311 0 
0.736832 -34.6143 0 
-14.758 26.7417 0 
-36.9629 14.4943 0 
2.46582 52.1012 0 
-13.28 58.6466 0 
-28.5698 36.1823 0 
42.1684 -14.8758 0 
-34.9906 7.41865 0 
25.1035 -12.5398 0 
-7.1941 22.2641 0 
3.677 -35.2022 0 
37.9808 14.0262 0 
-57.8985 11.6245 0 
-1.77569 -48.1033 0 
45.6684 5.01474 0 
-17.3561 -53.3458 0 
16.6386 -11.255 0 
29.8625 42.7758 0 
24.1928 28.435 0 
-28.3222 -23.6669 0 
2.81352 1.16508 0 
-20.5408 40.1358 0 
30.7418 -5.37115 0 
5.92212 -55.8057 0 
-15.4242 -30.3619 0 
-31.0958 8.29892 0 
-35.8218 -7.33475 0 
40.8083 35.8708 0 
-47.9518 33.4877 0 
-26.7421 44.5086 0 
-18.7815 34.9856 0 
-7.44894 49.3563 0 
-10.5329 48.2103 0 
-8.43197 19.7866 0 
-5.04846 28.1964 0 
44.3159 -35.6929 0 
-54.0698 8.71911 0 
30.0228 39.6724 0 
-12.2019 -44.9814 0 
21.5048 -34.7835 0 
-23.8013 37.4331 0 
-52.2118 -0.944841 0 
36.7623 -11.8933 0 
-7.06211 -0.860705 0 
-15.2738 18.8405 0 
-33.5231 47.6544 0 
33.7661 41.7044 0 
-49.6409 -23.2933 0 
14.0283 41.5859 0 
-13.5648 -5.54301 0 
23.3714 -44.171 0 
-14.1034 -13.9086 0 
-24.295 3.52351 0 
-5.09515 -29.0093 0 
-42.5744 32.6005 0 
55.9102 -5.98063 0 
9.69215 29.7591 0 
1.53658 -55.052 0 
-9.01028 -51.673 0 
28.1077 -27.5191 0 
51.4753 11.8703 0 
-33.8364 18.2108 0 
4.89724 31.668 0 
50.4006 19.6143 0 
-36.778 -15.7314 0 
48.8499 -27.1313 0 
7.2261 47.6731 0 
8.49153 -2.5211 0 
-30.5428 -22.4703 0 
40.2039 -40.0596 0 
-50.8621 22.7 0 
55.6899 -8.78486 0 
-26.5125 -10.6802 0 
52.1919 -18.9924 0 
55.5564 -2.28505 0 
14.3958 -25.7227 0 
0.313388 43.1881 0 
-5.08807 54.6003 0 
18.2709 -21.4926 0 
-6.64817 -5.9483 0 
27.1167 38.249 0 
30.6881 15.7348 0 
47.3933 -5.39352 0 
17.2698 52.6735 0 
-0.600922 32.3728 0 
21.9259 45.0461 0 
-23.2444 33.4853 0 
37.2596 37.6359 0 
-16.6059 -16.4488 0 
14.2737 18.4935 0 
-38.5658 -20.4199 0 
-53.8763 -10.0618 0 
21.7649 -39.8896 0 
16.904 -1.3203 0 
52.9273 -13.6631 0 
-18.3139 54.9571 0 
7.30045 -20.6674 0 
-14.3696 -45.3337 0 
-29.3671 12.5361 0 
28.4962 7.86945 0 
-37.118 3.65883 0 
35.9897 -11.1895 0 
25.884 49.3652 0 
-35.7539 -2.89188 0 
54.5729 7.90641 0 
-43.9043 18.5625 0 
-44.7815 -30.3008 0 
44.835 12.0716 0 
-10.1348 7.39001 0 
-11.866 -54.8294 0 
-52.3197 4.9471 0 
-12.5405 53.2244 0 
43.7074 3.04122 0 
-22.3469 -50.894 0 
21.8086 -49.2446 0 
28.3656 -31.108 0 
22.7353 -2.88235 0 
18.1258 47.0647 0 
-15.1356 46.6412 0 
-3.05242 48.1742 0 
23.6743 40.4497 0 
-18.7123 46.0064 0 
-24.0455 27.5118 0 
6.10302 -49.0518 0 
26.0597 -23.5862 0 
18.0886 32.7543 0 
48.0211 -0.0150782 0 
5.09332 41.4967 0 
-12.7969 -1.76597 0 
-25.7271 -19.6143 0 
-7.58838 -9.98859 0 
39.3747 23.2085 0 
47.0082 -33.3932 0 
19.648 -2.93515 0 
47.8575 22.7812 0 
43.1367 32.2619 0 
-17.0696 -46.8781 0 
-46.1916 -19.5941 0 
12.7878 42.5803 0 
7.19368 -55.4395 0 
-3.10518 8.8089 0 
29.3887 26.7878 0 
2.14655 18.6887 0 
-22.5423 -45.0582 0 
45.774 26.5174 0 
24.5813 12.8804 0 
7.46963 24.5125 0 
-38.9432 13.6735 0 
-38.0429 34.6352 0 
36.6861 19.3562 0 
27.5012 -38.0397 0 
0.979703 42.6701 0 
38.4025 32.6761 0 
5.54082 12.1034 0 
11.7096 7.19669 0 
39.9468 -31.8008 0 
-2.10105 -42.0231 0 
-48.219 3.52388 0 
-8.30208 -8.62694 0 
28.5414 35.2612 0 
-26.7461 22.0083 0 
-32.4029 -18.7676 0 
-49.7923 16.1669 0 
53.9204 -21.7971 0 
-42.6406 -22.7715 0 
-28.1545 43.8334 0 
-10.1887 -15.0917 0 
31.9752 12.7764 0 
-6.97966 -57.1208 0 
-21.0541 8.92165 0 
30.4225 8.469 0 
9.23781 43.3993 0 
55.2155 -9.3107 0 
-7.99829 15.5033 0 
-41.8471 -25.7487 0 
14.2348 17.4892 0 
8.27434 -4.54565 0 
11.8977 -53.8609 0 
-45.8462 25.9563 0 
-26.9699 13.1751 0 
-2.18157 -29.3578 0 
-25.6342 29.075 0 
26.9963 -15.9512 0 
29.1001 -23.7103 0 
6.06069 17.1456 0 
-20.5447 28.4284 0 
-15.7406 -7.35836 0 
-43.548 40.1165 0 
26.0527 45.2099 0 
43.2194 -21.8635 0 
-12.5573 -40.5557 0 
32.9812 22.6008 0 
-47.9215 -0.461999 0 
24.8609 20.6114 0 
-11.2276 6.95617 0 
31.3764 -11.2482 0 
55.6758 2.29457 0 
48.8434 17.2411 0 
3.29359 55.077 0 
-1.34724 -56.7597 0 
-12.928 27.0345 0 
32.8605 45.2496 0 
-14.6629 58.2774 0 
-48.1157 -27.0636 0 
36.2191 -34.1003 0 
-1.22674 -3.39577 0 
42.5615 -28.3204 0 
12.3405 -33.1268 0 
-2.02234 -57.897 0 
27.5123 20.7567 0 
-0.268079 27.6028 0 
-17.4156 40.8792 0 
-12.8287 -26.5844 0 
34.5108 -19.6966 0 
41.3598 21.9399 0 
9.72318 36.566 0 
43.6984 -8.82357 0 
-9.09107 11.5007 0 
-14.8966 2.04364 0 
21.2807 -27.8646 0 
-19.3262 49.528 0 
7.59955 15.3409 0 
-47.0144 -8.23437 0 
-37.7981 -31.9966 0 
-2.46256 29.9321 0 
25.3991 -18.8433 0 
23.1135 -24.9665 0 
-30.9862 -13.9112 0 
-46.1011 -31.687 0 
-37.4168 1.57304 0 
-20.078 43.2476 0 
1.79162 48.9892 0 
-53.2988 -14.9263 0 
-27.7955 -6.14715 0 
29.3799 -47.9215 0 
-14.1473 6.42032 0 
11.2069 49.0261 0 
16.8996 -31.9832 0 
-4.9055 -36.9918 0 
-17.1907 29.6908 0 
-22.383 -1.01534 0 
12.5807 -6.6396 0 
2.92668 48.4196 0 
1.65714 8.21384 0 
-2.42075 -12.3111 0 
-41.5096 25.7984 0 
40.8359 3.34685 0 
-37.9896 -40.6026 0 
44.6761 -34.2388 0 
-21.9042 46.8149 0 
45.8087 9.88339 0 
3.88012 -11.4488 0 
22.0452 -21.6783 0 
32.589 -45.1157 0 
6.07456 -18.4833 0 
15.6003 -1.99863 0 
-32.9499 -39.9055 0 
-39.1276 35.4046 0 
19.8852 -41.9137 0 
-15.207 9.09168 0 
24.4796 -19.3528 0 
7.76496 -40.0517 0 
51.3579 -24.0199 0 
-42.375 4.85355 0 
0.726075 24.46 0 
-30.4448 39.7212 0 
29.6352 18.7785 0 
52.8939 -23.5893 0 
18.9125 26.686 0 
-20.0761 52.585 0 
-35.7942 -25.0839 0 
6.32202 37.6544 0 
11.6629 -38.9651 0 
-10.0791 41.6277 0 
-14.1941 11.3034 0 
29.5912 47.6553 0 
-48.5368 12.987 0 
45.9828 -6.02472 0 
9.29472 52.875 0 
-40.0653 -19.9885 0 
21.4055 18.5051 0 
15.4252 -42.9584 0 
53.1672 0.0363663 0 
51.8332 -4.41742 0 
14.3744 -36.0948 0 
-54.5325 -7.07601 0 
22.6354 3.33838 0 
49.0122 -20.0716 0 
-42.8654 -1.9218 0 
-2.04297 9.45363 0 
-30.0546 -13.9352 0 
37.1655 11.8435 0 
23.7303 -5.03022 0 
18.2306 40.212 0 
-1.86982 14.8398 0 
-33.2518 -10.4063 0 
-2.69982 -16.1579 0 
36.4646 -1.70633 0 
48.7449 -11.8355 0 
30.7526 -7.01102 0 
-3.30539 25.1396 0 
2.33437 23.5756 0 
-38.5541 30.1477 0 
-52.837 17.5543 0 
-34.0338 26.4283 0 
19.0989 12.1647 0 
11.8766 14.0399 0 
-46.1674 10.4088 0 
44.7055 16.9713 0 
-38.7859 -33.5424 0 
41.1223 42.4185 0 
-40.4527 7.28293 0 
40.3312 -6.82151 0 
5.1333 -42.5003 0 
-11.4902 35.0494 0 
-43.7385 -10.5644 0 
32.4426 -29.4956 0 
-32.5253 -34.6544 0 
-8.50415 42.7991 0 
-37.4985 22.4851 0 
-46.8163 14.1916 0 
37.2757 35.1205 0 
46.6038 -29.9114 0 
-56.2174 16.113 0 
-30.5552 -31.7059 0 
40.8545 -20.7834 0 
-30.8179 44.1151 0 
9.13177 -5.34748 0 
-39.4151 -28.5692 0 
12.0543 -50.3925 0 
32.6037 4.39666 0 
-48.4748 27.7387 0 
-13.8516 47.5711 0 
35.3181 -31.5314 0 
-24.2131 14.9675 0 
45.024 28.6557 0 
18.6185 -29.5718 0 
18.9341 -47.9917 0 
-32.1621 31.8837 0 
11.7069 -20.5317 0 
-52.5435 14.5536 0 
-26.6084 -25.7583 0 
-9.35827 28.5621 0 
-31.9324 48.3513 0 
-28.1682 -3.38162 0 
-5.94318 2.92048 0 
-9.91874 -25.8189 0 
51.3736 8.08821 0 
-6.90063 -17.5981 0 
43.0944 -23.7609 0 
-25.8975 -32.7033 0 
-31.9226 25.0118 0 
-10.7804 17.9416 0 
-21.4979 11.8565 0 
37.4726 26.5122 0 
-3.59228 55.5077 0 
-18.8293 22.569 0 
13.056 -44.4615 0 
-45.321 29.0118 0 
-51.6712 -6.84214 0 
-29.133 27.5663 0 
-19.0918 -22.2586 0 
38.9504 44.7329 0 
-9.41477 58.2805 0 
23.0525 14.1475 0 
25.7014 9.15734 0 
-0.114486 -0.594347 0 
45.8781 -18.62 0 
-9.80501 -24.6664 0 
-30.9778 -0.267208 0 
10.5917 27.1587 0 
1.82837 -9.61471 0 
-14.8727 -48.4644 0 
16.2868 -18.3976 0 
0.17486 -17.8511 0 
-6.29461 5.38493 0 
-20.2293 -37.0283 0 
-30.1463 4.09758 0 
-43.8863 -34.7909 0 
48.7603 -7.82561 0 
33.3955 -38.235 0 
23.5551 49.8082 0 
-5.04997 -46.7471 0 
31.1483 32.1309 0 
-21.4838 -40.7741 0 
-4.53524 16.6187 0 
20.0756 36.3983 0 
15.3564 -48.9324 0 
-4.49657 -57.6262 0 
9.38946 -32.7142 0 
51.7855 3.90039 0 
35.8695 -23.7621 0 
-18.8694 0.80155 0 
-24.156 -12.1042 0 
35.8757 29.9198 0 
-41.5407 -7.21136 0 
-2.31068 36.8632 0 
36.9805 -42.3648 0 
-42.7197 24.4909 0 
22.134 -9.91664 0 
-53.8572 6.92172 0 
-51.7466 -19.133 0 
-23.8998 0.0144283 0 
-8.44073 -34.6127 0 
4.70025 54.2762 0 
20.4889 -51.9423 0 
5.55812 11.3064 0 
3.63393 31.5767 0 
-40.2019 17.9919 0 
14.0206 9.26673 0 
-41.3016 -33.7417 0 
-17.2927 -24.8488 0 
-5.05781 -52.1913 0 
-41.0255 -37.3232 0 
-49.9009 7.20095 0 
30.4084 -44.877 0 
17.8298 -15.7276 0 
15.5817 25.0087 0 
32.5727 23.6474 0 
-20.2476 -16.6336 0 
-7.86486 53.5485 0 
-45.8627 38.2262 0 
-27.2442 48.7728 0 
-33.6975 30.4201 0 
12.5567 33.2478 0 
-18.2353 15.1574 0 
3.92865 7.97054 0 
8.7831 -14.3316 0 
24.9737 -34.0515 0 
-21.6164 7.53636 0 
26.8821 26.2502 0 
-10.0466 -1.10758 0 
28.3581 -42.433 0 
-20.6342 -19.4505 0 
32.7388 -30.4777 0 
-10.4634 15.8033 0 
-8.40232 37.4673 0 
-14.3941 33.8668 0 
36.7419 -14.5845 0 
13.1116 -25.8662 0 
-1.56987 -52.0682 0 
-37.0887 39.7752 0 
1.08877 -49.9625 0 
-47.9321 -14.3163 0 
-46.6234 37.423 0 
-37.8833 -10.2562 0 
1.30541 -42.7816 0 
-5.42746 -39.8461 0 
2.20193 -57.3088 0 
41.869 -33.8961 0 
-48.4364 -10.2804 0 
-6.16413 -22.4795 0 
8.68479 -45.4557 0 
55.7652 -15.4248 0 
-39.8524 11.7501 0 
-4.44493 43.9883 0 
9.68645 4.63861 0 
-22.5172 19.0991 0 
-26.7743 -47.5865 0 
17.8418 20.4721 0 
24.3533 35.2717 0 
4.61986 38.86 0 
5.59163 -11.9163 0 
-17.2608 23.0624 0 
29.796 -40.5225 0 
8.35997 -28.6847 0 
17.9022 -34.3524 0 
-24.9844 -28.1319 0 
3.2813 -25.1113 0 
-19.2072 -28.3511 0 
-15.8352 41.9161 0 
36.4764 -41.2298 0 
-54.744 -0.390924 0 
0.506252 -10.286 0 
18.3747 -12.5978 0 
-1.39226 33.4735 0 
8.9789 -50.1436 0 
53.5526 10.4308 0 
-16.1543 -37.962 0 
-17.1257 52.2672 0 
-5.05164 -3.08513 0 
14.5741 47.6604 0 
-40.0157 41.585 0 
-45.8565 6.453 0 
14.6086 53.9663 0 
2.42143 -6.77079 0 
8.23226 55.2703 0 
10.3313 0.693013 0 
-47.2738 -1.97727 0 
-2.38371 16.2006 0 
[...]
<CellData Scalars="wall variable 0">
<DataArray type="Float64" Name="wall length" format="ascii">
2.656 1.88695 2.84535 2.60377 6.00417 0.963205 2.601 0.819748 3.21645 4.93153 2.38024 7.44091 3.80899 3.22192 5.99041 2.21631 0.901939 3.82324 3.69278 3.34395 3.52309 1.06684 4.89543 1.50416 3.68777 1.46713 2.00891 3.67668 4.19909 0.81359 4.42131 4.83098 4.19909 3.31986 2.93244 1.7825 1.52727 4.18147 0.447713 3.01023 3.04996 3.04167 1.32722 0.306752 7.85514 4.21492 4.57791 4.31571 5.75481 3.32147 3.75288 3.75966 1.81518 6.90719 1.51532 0.737473 4.70003 4.29228 0.565751 6.43742 4.64134 7.22577 3.03141 4.18914 4.21691 4.63596 0.720285 2.70372 3.02822 4.61348 0.822236 4.88604 2.0924 4.25384 1.97461 3.07962 1.12086 2.41151 4.19818 3.24166 2.89152 7.97163 0.124563 4.45604 2.02598 3.09836 3.22192 2.28275 2.33077 0.378111 3.39859 6.40929 3.60385 0.815534 4.27727 4.002 2.54296 2.42022 3.48685 6.43158 3.57629 3.13237 3.35032 2.42506 1.3764 3.09831 1.23035 2.45676 3.78258 4.38168 2.86077 1.44793 5.68156 1.55965 2.97482 2.87803 4.04935 3.57903 1.80035 8.11492 3.76471 4.39715 3.70517 6.67445 1.86256 1.74496 3.48113 4.35185 4.41392 4.89543 4.5849 3.65273 4.38285 2.15779 1.53712 2.5374 4.42152 2.10784 1.18092 9.96154 1.58547 1.714 10.9128 4.41213 2.62295 2.65373 3.58182 0.398774 5.316 1.29257 0.401929 4.13251 3.22846 4.0161 8.39275 2.05028 5.29598 3.99476 2.46307 5.13546 4.65672 4.18585 3.13237 3.14058 3.18418 3.15466 5.49333 6.48882 2.26744 3.44349 3.17766 0.963205 3.36932 2.30218 2.75809 0.791725 0.30346 4.93153 3.07006 6.5246 3.74679 2.95418 0.993033 3.0915 7.24193 3.39983 2.01618 3.54696 4.32178 1.24324 7.24193 4.71624 3.36513 1.94206 3.23265 0.688121 1.65128 3.20337 3.16347 0.519809 4.64134 4.30063 2.25617 4.7074 5.32802 2.10386 3.0756 0.364185 3.07899 2.62005 1.79829 7.11781 2.80382 4.06131 3.54827 2.19889 3.40377 2.89598 4.67651 4.41093 0.557953 5.31914 0.146995 1.3195 4.26788 1.99871 5.13455 0.117245 2.12446 4.27727 5.76676 6.56152 1.05356 6.94735 2.84446 3.87797 3.98287 4.42152 3.89363 2.76077 6.07223 0.755495 6.87839 0.81506 1.55212 2.49862 0.364405 3.28126 3.75966 3.30101 4.30063 4.18914 4.49079 3.38084 3.39241 8.69726 2.81214 2.83529 5.77856 3.76079 1.96872 0.791725 4.68437 3.68199 2.48443 0.410114 6.71441 0.548376 2.31394 4.19215 1.9767 2.36246 7.63141 3.50194 3.44007 2.68832 3.76471 0.613381 5.49333 2.37744 1.42354 3.65273 0.855325 4.04935 0.618466 4.90029 2.01618 3.52286 2.24677 2.20286 4.53281 3.95704 1.94648 3.48595 3.65468 4.69466 2.18859 3.08933 5.65215 3.35813 3.94377 1.14778 3.24573 4.25384 3.53444 0.920955 8.99749 1.77426 5.95295 0.720285 3.96888 1.53525 1.82919 2.85014 0.967685 4.26788 5.15017 0.892324 8.07781 4.23003 2.42022 2.36862 1.6363 5.31318 1.85653 1.33137 1.64989 5.03126 3.04311 1.74615 4.0161 4.99425 3.58352 3.38111 3.50194 3.44349 1.86587 0.592085 3.49531 2.77512 2.48564 4.36414 3.23265 1.94571 4.1836 0.37208 5.64728 1.42291 1.11956 3.15251 3.95483 0.72654 4.80626 1.7177 0.470074 4.23111 6.39958 3.17893 1.7177 0.992899 1.26743 1.89776 4.74916 2.62405 2.6977 0.337242 5.91005 2.77352 2.83934 1.23623 4.74916 4.14114 3.02802 0.33677 3.58352 2.96564 5.06948 1.65128 7.74251 3.34003 2.69322 2.80993 5.07728 3.11766 3.08933 2.22731 3.79127 3.56702 3.95871 1.68441 4.84373 3.49194 2.30408 4.75247 0.776789 3.26073 3.69001 3.70622 0.716141 7.04058 2.64291 3.16581 3.03898 3.40092 2.55259 3.24166 2.71284 8.55695 1.56446 3.73173 3.49851 0.735686 3.20337 5.07728 2.78671 8.43556 0.854951 2.83205 3.04226 3.44543 2.79597 11.0066 3.31729 3.17872 3.16732 2.3745 6.3422 1.33746 0.861369 2.5672 3.8279 4.90212 1.45219 8.98285 3.54496 3.08568 3.97685 4.93526 2.32656 2.3642 3.29975 3.53279 3.15902 2.80096 2.86087 2.76946 1.5701 4.29756 3.10971 1.85653 1.64377 2.97984 2.94245 2.68536 3.34092 5.02739 1.35172 2.65143 8.56734 1.18462 2.22696 7.77586 1.03693 1.7079 4.45308 4.28448 1.80963 2.97984 1.49129 4.33038 2.0731 7.50305 0.374891 7.64873 0.59245 3.04486 3.15251 3.07238 1.16638 2.93244 1.35382 3.67076 3.70376 8.73844 0.557953 7.4218 0.364405 5.22036 2.66687 2.69836 6.73509 2.92751 2.84366 1.25878 6.2055 0.694066 3.12414 2.22846 4.75247 0.622636 1.79489 4.64033 0.96476 2.1964 4.05659 2.38498 1.18421 3.18277 3.81333 4.33349 4.20088 3.23748 5.34765 0.96476 4.0081 8.56734 2.65651 3.78099 4.21074 0.312242 7.86002 0.378111 3.78114 2.37565 4.71546 4.23111 8.33634 0.592085 4.68487 1.48924 2.95511 4.68487 1.94571 1.94206 7.55551 3.16581 3.57629 0.404952 4.04805 5.29598 4.96546 1.87827 1.14214 7.19586 1.94697 2.62973 6.26405 4.29157 3.5488 1.55966 6.03583 2.52642 4.94055 5.05109 2.3642 8.60655 3.62096 2.20931 1.07923 0.367988 3.31177 3.69057 0.993033 8.2478 7.77586 2.38464 1.42112 3.52995 3.62757 2.69626 2.643 2.94245 1.80963 3.47536 3.34618 0.374891 2.42155 2.656 6.35745 7.92824 2.25807 2.96564 4.99425 3.0464 2.89587 5.07852 1.47723 5.71761 3.48469 5.316 3.98203 2.5074 1.55965 3.02414 5.94137 5.99041 3.09836 2.36862 2.54296 1.87827 2.17219 3.08837 2.38605 4.14114 5.07513 4.18943 2.19889 5.3057 1.37773 1.51033 1.64393 0.57843 0.907648 0.411976 3.70376 2.75878 6.04822 0.391278 2.96606 2.67352 1.84831 3.23055 3.23033 2.80096 2.75996 0.306752 4.99926 3.0915 3.69057 4.2463 0.33677 6.32327 0.8136 2.91375 3.44007 3.38111 3.33334 3.18418 3.49822 1.58547 0.399616 4.97723 0.316625 7.9392 3.07238 1.11956 7.95719 2.65651 2.65143 4.12321 4.03472 3.75145 3.31561 3.4997 4.53527 3.15466 3.33334 1.18462 4.0081 0.576255 3.02414 2.02598 2.92542 1.96872 4.3249 1.8472 2.75147 2.34834 4.6679 4.37845 3.10616 2.66792 2.65937 3.06776 4.71546 3.76533 0.401929 3.54768 3.80284 3.75294 2.17219 4.96546 2.05028 2.43484 2.61515 1.01942 0.338115 2.68671 2.84446 1.80091 1.98903 3.18517 5.6615 4.28448 0.650478 5.76676 0.815534 4.46796 3.45149 2.11314 3.75288 3.70735 3.52995 2.99197 6.89511 1.78773 0.755495 1.89045 6.80172 0.919621 3.35705 1.53854 3.29587 3.13489 2.90286 6.36171 1.33137 3.22846 1.12086 7.55687 1.86341 6.03583 2.35955 2.89225 7.06561 1.6234 3.40377 4.18943 9.96154 2.44779 3.78099 3.75145 3.62789 0.399616 2.32163 2.30506 4.00915 5.3057 3.54827 0.73047 2.84545 1.00814 4.67298 4.19339 2.84545 8.10764 1.57241 9.94172 0.255101 0.717739 4.35185 1.78506 4.74303 3.3182 4.70003 3.51149 5.77082 3.42666 4.83326 3.63084 3.81014 0.467552 3.23909 2.84366 3.25647 0.37208 3.91114 1.07844 2.83241 2.79631 5.38848 2.95619 3.80284 3.78369 4.02621 3.28538 3.82085 3.52286 5.38992 6.39117 3.33661 2.96606 3.15902 1.32915 5.49766 0.650215 4.31427 4.65672 4.53527 1.52554 1.78704 5.77544 5.80458 4.27159 0.8136 2.14218 2.30506 5.55117 3.66935 7.9392 1.27548 1.89045 3.64761 2.68536 2.643 1.16638 3.76379 3.33229 4.90935 5.13266 2.10386 1.39657 5.39687 3.16502 2.06919 3.18277 4.03877 4.17632 3.44362 6.5246 0.0812972 4.73674 4.56882 2.42506 4.14908 4.14924 3.54496 1.49515 3.46846 1.36202 1.00814 3.43036 4.5484 0.661111 7.52347 1.17385 5.63297 5.87927 0.134267 0.641499 1.9767 3.27234 0.556811 7.52782 0.900669 2.38464 2.22696 2.11314 4.65191 1.01942 7.71602 1.23672 1.36011 3.40092 2.08922 3.78369 0.497861 6.54448 1.17385 2.1215 4.46796 3.60385 4.71869 3.77054 3.49083 3.30666 3.51321 3.55416 2.06958 4.38168 4.99747 1.07844 4.13321 2.20931 0.672791 10.0936 1.52554 3.4997 3.04082 4.12321 1.35172 3.15981 3.69278 0.481992 2.79597 3.20571 1.33826 3.86887 0.300092 1.31253 3.67328 0.410114 3.2632 3.42445 0.999105 1.78506 3.48113 2.28359 3.21225 1.14778 3.91935 0.901397 2.8894 0.819748 2.28298 2.8633 4.36668 0.151763 6.96554 1.82919 2.93294 2.74826 2.63711 3.11988 5.5579 0.589455 4.83326 4.40244 6.06029 3.24765 2.65484 1.74411 3.87797 2.68671 1.90699 2.78953 2.89152 2.55259 1.36011 6.62053 0.454831 4.4098 3.52309 3.91446 1.86256 4.09477 0.454831 1.58859 1.64809 1.76597 3.51149 0.737473 5.09348 4.03974 2.07068 3.21816 1.50416 4.41392 0.717739 7.00942 2.48118 2.28275 3.80899 0.300092 2.7466 2.48773 1.49515 3.53279 3.07852 2.36246 0.641499 7.92533 6.24643 2.66687 2.24273 6.68766 0.151763 3.67066 2.96735 0.64397 3.70517 0.180313 5.85948 1.36567 2.41151 2.35955 1.55966 6.92064 0.992899 4.80626 0.538495 2.38365 5.6791 4.89785 1.66999 2.15779 3.03511 5.24854 2.67352 3.33661 3.20609 2.65373 0.508216 8.54851 0.467552 6.35133 1.18108 1.68441 2.22846 0.57843 7.11004 1.23035 2.09387 1.45219 5.33731 2.06893 2.60377 3.03209 0.337242 1.89776 8.18906 0.257973 0.928719 4.74548 3.58182 3.20609 5.49766 2.89598 1.6234 4.25979 3.93922 4.64851 1.85202 1.51033 6.09916 0.503242 5.19276 4.99646 3.687 5.09337 3.1013 3.79107 6.26405 0.986447 3.49083 2.84054 6.73509 0.936644 2.24677 3.82085 0.653636 3.81153 3.67066 2.63711 1.8137 6.03797 2.19033 4.38345 1.44793 4.09247 3.74679 3.44362 2.61966 5.74528 3.95483 3.04486 2.3784 3.76093 3.53444 2.0924 2.04769 2.80382 2.79311 2.76946 3.49189 5.65215 3.11766 3.90774 2.6664 0.295528 2.8402 3.0464 1.86587 2.26744 2.12637 1.46713 4.70484 3.64761 3.29587 3.48119 3.48685 4.23003 3.10971 6.64175 7.03229 1.72318 3.52586 5.12318 2.89333 8.69726 2.92542 4.45604 1.8137 2.74826 4.08367 1.21151 2.46307 0.476955 6.9786 3.06776 3.22849 3.79322 3.75013 2.81214 2.89333 2.80809 0.312242 2.37565 4.99034 0.343013 3.05094 3.13489 4.13251 3.76533 0.676668 7.35961 0.622636 2.30408 3.57087 1.17483 2.76077 8.50842 0.907648 5.33731 4.90212 2.99645 2.59195 3.16347 0.735686 3.89833 4.5484 1.35767 3.38803 4.56882 4.89966 2.47016 0.861369 7.63914 1.3764 2.5213 5.8032 1.26937 2.00891 2.77776 2.77352 1.03693 2.69626 4.12989 2.5392 0.986364 3.16158 6.34686 5.56899 4.14908 3.35032 4.18585 4.31427 2.94217 4.2463 3.31177 6.92889 1.04927 4.02621 2.08922 3.03898 7.55551 3.36513 3.49189 2.86087 3.23033 5.7745 0.159904 0.920955 1.07923 4.13321 3.91114 4.1836 5.41755 4.53281 3.41027 3.21272 3.23748 2.03914 5.32319 0.603951 3.05094 6.12586 3.21639 0.294208 2.64212 2.90286 0.554732 2.03914 4.20088 1.48568 3.18517 2.05239 7.01054 3.75385 3.01023 5.67048 4.43663 3.99718 3.16723 7.74251 2.25617 3.30101 3.78791 3.64962 2.37744 3.39983 0.688121 4.36414 5.89195 2.48773 3.11365 3.42445 1.65628 7.06714 7.59481 3.56338 2.82103 4.21492 0.619331 2.75147 1.83317 4.1213 0.43317 2.78671 2.80993 2.2723 4.19078 5.56899 0.650215 2.3396 3.09178 3.08568 4.14924 2.86773 6.14887 1.53712 1.66999 2.62268 3.2205 2.83934 2.77776 4.83098 0.548308 3.2205 4.92348 2.3745 0.789676 7.17985 3.04996 3.75385 2.38657 3.81014 2.86941 0.789676 3.16732 3.31258 6.35133 1.05291 3.62559 0.632413 4.70337 2.65167 2.89587 2.8402 2.33104 1.99871 0.967685 4.39689 2.82565 3.76379 4.28157 3.22498 4.75438 3.71326 0.350365 7.60141 1.58859 4.09477 6.67445 0.64397 8.87807 1.17666 2.43484 5.13546 1.21151 1.65964 6.21126 3.79074 1.56446 2.40211 3.10616 0.527661 5.57069 0.81506 2.11106 9.0232 2.05901 0.476955 3.99476 4.04805 3.77054 3.65237 4.40244 3.42666 2.92751 2.84054 0.603951 10.3666 0.548376 1.0657 4.94055 3.46344 3.95704 2.71441 2.8633 2.93751 3.22207 3.20571 3.44543 2.10819 2.72396 4.36668 2.71441 3.04226 6.1072 4.04872 2.66792 4.22944 0.550845 7.36074 2.25807 6.41202 5.82928 2.67946 0.697117 2.89225 5.07513 5.06948 2.65937 4.04872 1.26343 4.16513 3.22849 6.64175 3.44929 2.10819 0.734613 2.75878 3.67076 0.737752 4.5444 4.50056 5.07852 2.65167 3.43063 3.69001 2.48055 7.71602 2.61515 1.17666 2.54361 4.12989 3.62757 3.70735 3.32147 0.927211 2.93294 1.53525 2.90438 0.716141 4.9803 1.65964 4.08367 3.94377 1.14083 4.6679 5.35235 4.88401 0.811019 6.71855 3.28538 1.04927 4.71624 1.24324 0.694066 5.34765 3.21272 1.70621 6.80779 7.97163 2.78953 1.28973 4.90935 3.03266 1.68518 5.38848 1.91643 0.928719 1.32915 4.29756 4.94657 0.146995 3.01755 1.52798 4.68437 2.75809 8.42763 3.14763 3.34003 3.16723 2.89411 5.7173 6.35745 2.601 3.17766 3.21645 2.8894 0.706538 2.68832 2.91375 4.27159 1.59345 0.180313 4.39715 1.05356 2.57996 1.52727 2.63599 7.03305 3.84459 4.29031 3.31729 2.48939 1.80035 3.35291 3.57087 3.49194 1.90699 0.242899 6.69458 3.0756 5.13266 1.28973 6.89511 5.05469 0.799736 3.49851 2.45247 2.71284 0.799736 3.37361 4.19078 6.99889 0.50484 1.97495 7.61442 0.618466 2.87803 1.06709 4.33038 3.02822 3.35373 5.02874 0.979814 5.9248 3.74396 3.35705 2.25528 0.822236 5.0797 0.565751 1.41521 3.3752 6.45529 0.257973 0.259048 4.29157 1.26894 0.892324 4.11898 3.38803 4.38041 4.67651 1.85202 1.23623 4.92348 2.62268 4.89785 2.75408 2.62405 2.12529 8.21641 0.294208 0.249173 2.24273 5.22036 2.49862 2.6664 2.44552 0.550845 2.97698 3.04311 0.329397 5.19382 1.714 3.49822 3.14058 3.78258 1.65064 5.19276 0.628308 1.59882 3.16158 3.6749 4.28157 1.39657 5.32802 4.02675 4.94657 1.5701 2.79311 7.11781 1.48685 1.97495 1.49129 1.64377 5.31318 6.72741 0.721588 2.55141 5.64728 3.25647 1.68518 4.02675 3.11895 3.71326 0.409229 5.55117 2.32163 4.19339 1.2632 2.05239 1.98903 4.23624 1.51783 0.7031 5.63297 1.33826 3.22207 2.62548 2.49579 1.31253 7.86084 5.31914 2.69836 6.24643 0.694146 3.01755 1.57241 3.12686 5.7745 3.23055 1.27102 4.05659 2.12753 3.78114 2.33077 2.48118 7.06714 1.76428 4.99034 3.63084 0.589455 3.10743 3.04167 7.17985 2.86941 2.65484 2.85563 2.86773 0.548308 4.42131 4.98176 4.03472 3.04082 3.31561 4.97723 3.62789 2.35828 3.18937 6.3422 2.38657 3.99718 0.676668 3.89363 2.5374 6.14887 2.85563 3.24765 0.971434 6.43158 3.48119 1.53854 3.74396 2.03661 2.11106 0.404952 3.47536 7.50305 1.49866 2.35828 4.43663 1.07187 0.936644 6.2055 2.13003 2.78246 1.70621 3.41027 2.20286 1.64809 8.87807 2.96735 3.81153 4.03757 0.927211 6.90719 4.15162 4.85867 2.5392 4.55358 7.01054 1.2632 3.27234 4.19215 0.476209 4.82529 5.35235 2.34834 0.619331 5.75481 1.68444 7.04058 2.90438 3.96888 4.63596 1.50736 5.09348 1.51532 3.03965 1.97461 3.24573 3.21225 5.32319 0.554732 4.55358 2.31394 10.3666 1.7079 6.34686 1.59882 4.7074 2.12476 0.979814 2.42847 2.34553 5.6615 1.48568 4.33349 4.64033 1.72843 5.13455 2.33104 3.6749 0.986364 4.85867 0.402802 0.0812972 3.07006 4.99926 1.32722 3.10743 5.5579 1.3195 8.42763 2.30218 0.3748 3.3752 5.15017 2.23137 5.85948 1.59345 3.66935 0.409229 4.75438 1.35122 10.9128 0.628308 0.503242 4.52853 5.55874 0.901939 0.360318 6.99889 2.2723 2.69322 3.14763 1.13669 3.56338 0.653636 6.39117 0.593117 2.95431 5.58799 3.30666 0.362893 7.60141 2.68168 0.497861 6.40929 0.553775 1.77426 0.235895 6.56152 0.650478 4.45308 2.42847 5.02874 7.63914 8.98285 2.09387 3.09831 2.12753 2.1964 5.88575 2.99022 9.94172 3.91935 8.99749 0.159904 3.12686 4.74303 1.3463 7.03305 0.555217 2.99645 3.8279 2.13054 1.51783 0.553775 4.002 2.12446 0.235895 3.35373 2.70372 5.95295 4.86068 4.1213 3.32716 7.52782 1.13669 5.7173 1.47126 3.24683 4.57791 2.82103 3.43036 8.10764 0.73047 4.41093 4.38041 1.35767 0.81359 4.18147 2.57996 3.98287 1.74411 4.98176 3.54768 8.39275 1.74615 2.97698 4.22944 1.23044 1.64989 6.36171 2.64212 8.21641 1.55212 5.57069 2.24853 0.329397 5.03126 1.23044 2.12529 4.03974 1.50736 2.28359 4.5849 1.06684 4.4098 2.99197 1.42112 0.900669 3.32716 1.83317 3.37361 5.05469 1.78773 2.45247 3.73173 3.79074 6.87839 2.70769 6.04822 0.734613 6.1072 2.83205 6.03797 6.9786 2.05901 1.09722 2.80396 0.519809 2.59195 4.11898 4.64851 0.339872 7.22577 1.45482 7.92824 0.706538 0.901397 2.72396 3.44929 3.52586 0.30346 6.71441 3.67328 2.49579 2.82732 2.38024 1.91643 2.79631 3.87847 3.98203 0.398774 4.74548 4.50199 2.13003 1.25878 3.23909 8.54851 1.7825 8.73844 0.411976 8.50842 0.555217 2.63599 3.09452 0.776789 1.68444 4.21691 1.56672 0.364185 6.69458 2.97482 2.5074 3.87847 2.83241 4.99747 0.343013 1.76428 1.65628 3.2632 2.48443 2.02926 6.12586 1.26343 7.36074 2.44552 3.90774 3.95871 1.08322 2.9839 11.0066 0.481992 3.82324 5.55874 2.03661 1.41521 4.29228 3.3182 0.463059 1.09722 9.0232 3.65237 4.71869 1.57499 4.73674 0.402802 3.11988 0.538495 6.39958 1.48924 2.95511 2.64291 4.19818 4.22638 1.55645 2.44553 4.03877 1.18421 5.22848 2.25528 0.919621 3.45589 4.06131 2.04769 4.88604 0.737752 1.35382 3.31986 3.67668 1.26937 1.23558 7.03229 4.61348 5.9248 2.12476 3.07899 1.56672 1.06709 8.11492 2.48939 1.33746 3.18937 1.49866 2.0731 0.613381 1.74496 3.91446 3.34395 2.12637 6.48882 3.84459 1.3463 4.23624 1.80091 6.94735 1.0657 7.63141 3.07852 3.29975 5.05109 1.05291 4.70484 3.68777 3.21816 5.23191 2.1215 7.52347 1.25728 4.65191 3.45149 0.971434 6.06029 0.338115 2.34553 1.79489 7.35961 3.89833 8.43556 0.43317 4.86068 0.556811 1.25728 0.661111 0.697117 4.18897 3.85999 4.25979 7.06561 3.03965 6.43742 5.0797 3.07962 0.50484 0.360318 7.59481 1.8472 2.40211 8.55695 0.117245 1.72843 4.15162 1.81518 3.28126 7.4218 0.576255 4.21074 2.44779 1.18092 1.35122 2.21631 5.94137 3.34618 1.07187 5.67048 0.447713 0.711938 7.64873 0.391278 2.70769 0.854951 2.9839 4.52853 6.09916 2.54361 6.21126 4.9803 3.70622 1.53089 6.72741 1.6363 2.38605 0.969041 0.811019 4.32178 1.18108 3.31258 3.17872 4.29031 4.84373 3.7164 5.22848 2.38498 1.27102 1.84831 5.24854 2.63335 4.11491 3.16502 1.36616 7.19586 0.7031 2.13054 2.5672 2.47016 3.31795 5.87927 0.621841 7.00942 0.255101 2.99022 1.20907 2.63335 1.14214 3.79107 0.463059 5.77082 1.76597 4.03757 2.19033 2.80396 2.68168 0.350365 3.11895 4.67298 1.36202 6.54448 0.295528 5.19382 2.24853 0.527661 4.37845 1.14083 3.35813 0.265516 2.77512 3.36619 2.6977 2.75408 5.6791 2.28298 7.44091 2.82732 2.62548 2.93751 5.23191 2.07068 0.621841 3.1013 4.08044 3.62559 0.259048 8.18906 1.26743 6.92064 3.5488 3.03209 2.84535 2.83226 2.5213 5.91005 0.242899 6.62053 1.23672 2.48055 3.26073 3.09452 4.39689 8.07781 1.26894 2.52642 1.86341 0.69512 0.3748 3.36932 6.00417 2.06893 6.45529 2.10784 6.07223 1.17483 3.35291 3.57903 0.855325 2.80809 5.12318 3.39859 7.86002 0.672791 8.2478 2.95418 4.09247 2.86077 0.711938 7.85514 2.75996 2.94217 0.980624 2.3784 0.59245 3.86887 7.86084 0.999105 3.11365 2.7466 0.694146 6.68766 0.249173 3.21639 2.02926 3.68199 1.52798 0.721588 1.53089 3.54696 4.90029 7.61442 1.27548 0.316625 2.84857 2.62005 3.45589 6.80172 3.02802 1.37773 4.00915 2.14218 6.32327 3.46846 7.92533 0.134267 3.31795 4.89966 0.969041 3.08837 3.75294 2.95619 6.71855 5.88575 3.81333 2.06919 4.11491 1.20907 2.83226 1.88695 2.42155 1.45482 1.72318 1.23558 5.8032 0.124563 3.03266 3.33229 2.82565 0.69512 7.55687 3.12414 6.80779 2.78246 4.50199 0.508216 2.84857 7.95719 1.42291 2.55141 1.48685 1.79829 1.64393 4.99646 1.65064 2.45676 7.11004 1.36567 2.23137 3.22498 0.362893 2.85014 6.96554 0.470074 3.17893 3.36619 3.49531 8.33634 0.980624 6.92889 0.367988 5.41755 0.72654 3.76093 1.42354 5.89195 2.48564 0.265516 2.38365 4.38285 
</DataArray>
<DataArray type="Float64" Name="wall variable 0" format="ascii">