<VTKFile type="UnstructuredGrid" version="0.1">
<UnstructuredGrid>
<Piece  NumberOfPoints="    3392" NumberOfCells="    2495">
<Points>
<DataArray type="Float64" NumberOfComponents="3" format="ascii">
-47.3635 -36.8642 0 
7.00771 7.34372 0 
39.3469 -4.73938 0 
0.986561 -49.0067 0 
-21.1179 37.8448 0 
-52.9492 20.0317 0 
6.12297 -34.2099 0 
-33.2585 -41.51 0 
-0.365716 -40.6038 0 
1.0023 -21.6647 0 
-49.6204 11.8109 0 
36.8429 -17.7245 0 
-11.0336 32.0435 0 
5.23592 -50.8803 0 
53.863 19.9399 0 
-8.31805 -32.9055 0 
-15.9791 14.5823 0 
-39.9036 25.2287 0 
-22.7779 -30.3194 0 
24.4564 -15.4719 0 
18.9291 47.1751 0 
34.2617 40.8495 0 
-39.727 -32.8767 0 
4.32655 0.701931 0 
0.641998 -24.6302 0 
43.3056 -7.92829 0 
-25.7169 -47.1722 0 
-21.5489 -43.4158 0 
-44.6466 12.0971 0 
-50.155 -10.6056 0 
20.9038 38.8712 0 
35.2268 18.0523 0 
-31.8253 -50.77 0 
-26.0267 49.8837 0 
-22.6273 -10.7745 0 
-44.7886 -33.2793 0 
-11.261 28.1625 0 
-7.12712 39.8488 0 
27.7169 44.8112 0 
-7.35549 -52.3989 0 
31.226 27.4083 0 
-39.2471 -3.39094 0 
30.3086 -50.2907 0 
-34.3471 52.6462 0 
13.7973 38.3684 0 
52.8178 -15.8712 0 
-10.1264 -1.0569 0 
-21.6868 26.5642 0 
4.91941 17.1456 0 
-3.96975 -33.9679 0 
32.8416 -27.9641 0 
19.7112 58.5545 0 
-19.702 -7.39875 0 
36.3676 -33.3034 0 
-20.0413 -19.0105 0 
-34.8872 5.33204 0 
-7.71301 -41.4217 0 
43.0151 42.7807 0 
11.1416 -21.7914 0 
13.7521 43.0533 0 
-21.0967 26.6036 0 
43.8932 -30.767 0 
39.0239 -39.1668 0 
32.2545 -20.7671 0 
-48.2893 25.9723 0 
7.10938 45.8715 0 
19.8582 24.8225 0 
-52.7626 -22.1698 0 
19.2637 -13.7826 0 
44.1961 -21.3605 0 
11.8048 -3.18537 0 
-43.3822 -31.8565 0 
34.3241 48.2058 0 
-24.9504 57.3617 0 
58.3863 15.4764 0 
-37.8563 -15.9435 0 
19.255 -21.3511 0 
-35.9641 36.9079 0 
20.5841 -37.2828 0 
0.56105 61.4094 0 
-57.73 -5.34483 0 
25.131 -30.8995 0 
-8.30333 -8.94213 0 
-53.2139 -13.7163 0 
43.8278 21.9993 0 
47.8604 34.4825 0 
-55.5044 -12.3192 0 
-0.918024 46.7264 0 
-37.4132 7.01986 0 
-32.1758 48.2711 0 
1.6438 -39.2101 0 
-23.1489 -23.0745 0 
19.7871 26.0088 0 
-21.4733 48.2377 0 
24.4843 -31.4577 0 
18.6495 17.6291 0 
24.2916 -1.82586 0 
-17.1759 32.6757 0 
-14.0204 60.2901 0 
9.63256 -28.9179 0 
17.688 54.3873 0 
-41.4637 17.8809 0 
40.5743 10.6935 0 
-52.7516 6.15797 0 
51.5106 -14.6884 0 
-11.4804 -1.13978 0 
-51.4641 -3.95617 0 
25.0425 -2.14983 0 
14.7716 -25.4319 0 
-43.4936 7.15241 0 
53.6932 -25.8349 0 
-14.2859 10.3714 0 
-23.7568 -42.8911 0 
20.7408 32.7931 0 
39.0202 -15.9433 0 
61.9168 3.16609 0 
-26.1089 -23.4811 0 
5.31265 -20.1586 0 
40.7816 -43.1968 0 
31.8266 -3.96205 0 
25.8252 6.7221 0 
-7.8844 56.3965 0 
25.1497 -44.1711 0 
-49.2069 -18.7799 0 
11.3128 -48.9089 0 
-34.5027 39.3387 0 
-12.3817 -17.6514 0 
36.6754 -32.9535 0 
25.5505 47.2406 0 
7.6772 -43.5596 0 
6.70794 59.1715 0 
-18.2655 -1.89943 0 
-36.7231 -27.1852 0 
-10.6204 -14.6838 0 
30.6329 -17.1563 0 
-35.8856 41.7543 0 
27.5064 -4.71322 0 
47.9752 -28.9475 0 
-39.8554 -6.36299 0 
-21.5841 37.3694 0 
-44.3878 3.77303 0 
17.5286 59.847 0 
-19.2458 -56.8975 0 
-4.58509 13.0462 0 
41.7893 38.9687 0 
3.14662 26.7066 0 
15.959 32.9473 0 
18.8863 -21.1201 0 
35.231 18.704 0 
11.0346 34.8607 0 
-55.7958 19.6918 0 
-48.6142 -25.3897 0 
51.5289 27.7079 0 
-18.7 38.0609 0 
1.54959 60.7685 0 
14.0029 -52.3865 0 
7.45198 16.5342 0 
16.1685 10.442 0 
-47.5958 -8.85377 0 
-2.6432 -59.7799 0 
-18.5972 -3.20951 0 
-11.3839 -12.2245 0 
2.95776 50.3983 0 
-38.2183 30.9284 0 
-46.1901 -26.3866 0 
50.4791 -34.6545 0 
21.3213 27.3943 0 
14.0133 -15.1862 0 
-35.6209 -40.8451 0 
-14.3655 -21.1103 0 
45.7494 17.3363 0 
-13.0752 45.4475 0 
-29.2836 12.3589 0 
43.3362 11.3523 0 
4.41582 -7.41721 0 
-24.3265 33.1045 0 
-11.3199 21.2074 0 
-26.3222 49.6775 0 
20.0389 24.4671 0 
11.6098 -6.64187 0 
46.2467 33.9182 0 
-34.0496 -17.0062 0 
-38.2631 18.3879 0 
-2.85083 -42.1043 0 
-36.0719 42.0045 0 
38.5613 -22.8387 0 
40.4682 -33.5274 0 
9.06991 24.3258 0 
-29.1664 40.3863 0 
-22.9211 -10.1145 0 
40.409 0.399858 0 
58.0017 3.36514 0 
-17.0016 -51.6231 0 
-18.2636 -57.6168 0 
46.6087 32.3223 0 
24.6747 -15.7125 0 
34.3732 30.2681 0 
-15.7815 9.16237 0 
45.4477 -16.297 0 
-44.2433 36.8414 0 
37.662 -21.0178 0 
24.6086 -2.01113 0 
-12.8522 9.306 0 
-18.1415 38.0437 0 
-10.5594 -25.716 0 
-13.7258 60.4639 0 
20.5961 52.4376 0 
-11.436 29.7159 0 
-1.73945 -4.29662 0 
-30.5102 15.5972 0 
18.3736 -46.8734 0 
43.0778 11.2293 0 
38.4525 29.7212 0 
0.831515 39.7659 0 
-24.5021 57.4541 0 
-18.4408 -38.4858 0 
48.6104 -28.887 0 
-2.78682 34.0909 0 
14.2693 51.9517 0 
61.6729 -12.4762 0 
-11.5989 15.7663 0 
-21.7453 3.06637 0 
30.9789 -39.4042 0 
29.2963 -45.4779 0 
10.2466 21.0693 0 
15.2855 -27.2922 0 
37.6143 46.0375 0 
-3.08538 42.4639 0 
35.2104 -26.9029 0 
32.8267 -34.9433 0 
-43.5462 -20.1711 0 
13.3402 -2.04764 0 
-53.9272 2.75766 0 
-2.52195 -42.5307 0 
-45.5055 -17.186 0 
16.4571 -32.0312 0 
-39.6984 -9.57679 0 
-7.56203 5.11174 0 
-20.055 9.23731 0 
-17.0154 -14.0929 0 
24.6389 -45.3694 0 
-7.17615 -51.9072 0 
-23.9259 42.1984 0 
-31.8392 -1.52888 0 
18.1284 -9.35372 0 
-27.2129 12.8657 0 
1.74872 10.8332 0 
-3.86523 -17.7127 0 
-7.76745 15.0958 0 
58.5472 4.6169 0 
56.7182 -5.24481 0 
39.2361 32.4907 0 
-30.0762 -14.145 0 
21.6138 -9.10515 0 
5.73942 -16.3869 0 
30.5393 -31.172 0 
-23.7323 -5.38106 0 
8.22259 -25.6923 0 
21.9797 -2.2511 0 
12.2434 -40.9594 0 
-17.1565 -26.9699 0 
-30.0149 -22.4558 0 
-21.7144 13.1429 0 
33.6384 -27.1169 0 
10.6852 -57.2924 0 
37.937 26.1547 0 
-60.2189 6.86411 0 
0.615032 35.2031 0 
42.1987 -41.0339 0 
42.302 27.0856 0 
-56.3487 -20.8993 0 
27.6097 38.0998 0 
-19.4783 -31.2324 0 
33.5442 16.5201 0 
9.18423 53.5191 0 
16.8431 -55.3698 0 
-14.451 59.9116 0 
-20.4865 16.5614 0 
-15.6635 -32.8543 0 
-55.0001 -27.8439 0 
8.56446 29.8025 0 
-28.7873 -0.00532449 0 
29.9318 -39.954 0 
30.0496 26.7039 0 
3.34849 -57.8376 0 
-45.8769 23.9367 0 
-45.0341 12.2996 0 
20.6903 -50.8576 0 
-38.2531 31.3743 0 
32.297 4.87336 0 
-24.6843 -10.0066 0 
-60.8959 -2.87422 0 
-2.75711 13.7361 0 
-42.2773 -20.161 0 
52.6698 16.5945 0 
33.8379 -6.83493 0 
26.4273 56.9482 0 
-1.56 20.7202 0 
-46.6139 -15.1453 0 
-4.24269 -22.8555 0 
52.1651 -2.11244 0 
-51.5169 34.4122 0 
42.8587 -10.6095 0 
-5.44112 35.6117 0 
3.22933 33.4957 0 
53.9742 30.0086 0 
-32.2358 48.8267 0 
-48.1602 37.1452 0 
26.8929 17.6922 0 
16.9706 19.7152 0 
-8.6119 -50.5676 0 
19.8238 -40.1431 0 
-3.13192 53.1436 0 
-33.07 -28.3543 0 
-57.7998 10.195 0 
58.0235 -9.45508 0 
7.42941 -60.4912 0 
-16.3017 49.5425 0 
-38.9755 18.3161 0 
50.4722 16.1761 0 
32.8293 35.0943 0 
52.61 7.97873 0 
-53.1687 32.1219 0 
-37.7204 -45.2266 0 
36.536 24.6834 0 
-20.1041 53.0971 0 
43.322 -8.32324 0 
5.27707 -16.0613 0 
-28.7175 31.7498 0 
-18.9574 -0.331668 0 
12.6973 -8.27905 0 
-24.3515 42.1992 0 
-29.3573 -23.2925 0 
47.2262 6.62575 0 
57.3599 21.6689 0 
-57.9447 14.0232 0 
-35.9925 -24.0973 0 
-34.5633 21.52 0 
-31.4262 -4.3776 0 
26.65 -41.4494 0 
-32.2303 19.875 0 
-22.225 -21.8601 0 
16.0745 -29.3019 0 
53.6597 19.6424 0 
-36.8881 -36.2843 0 
-13.4899 41.3339 0 
-1.64553 13.3785 0 
-40.5589 -5.08443 0 
-7.44516 4.17853 0 
-14.4433 -36.4884 0 
-22.1878 26.0087 0 
-10.0531 -25.8768 0 
-49.2037 27.122 0 
-37.702 -46.2825 0 
-44.9571 36.2062 0 
-14.9457 25.3421 0 
-30.6484 16.7907 0 
28.6048 -24.0431 0 
49.5455 -27.1274 0 
-27.7425 32.7361 0 
0.402628 -55.0384 0 
-6.51084 -33.4591 0 
-32.1884 28.1061 0 
-41.3018 40.7214 0 
-27.579 -32.3531 0 
-34.7308 -34.9184 0 
-7.37152 26.5918 0 
32.5886 20.5759 0 
37.0509 13.2287 0 
-0.136712 -0.4631 0 
-0.466041 -14.5201 0 
-14.2333 -34.6984 0 
-44.9191 -0.742123 0 
14.8504 39.2452 0 
2.37284 -13.9594 0 
-52.9871 -21.2716 0 
23.1235 -26.3199 0 
0.130445 -24.8552 0 
-8.60083 7.8726 0 
-29.1974 -52.6738 0 
-42.8151 5.89135 0 
-18.9302 18.0193 0 
-50.9627 22.472 0 
-18.7775 -47.4405 0 
-47.8786 25.8039 0 
-20.7827 11.1095 0 
26.7896 16.9214 0 
-46.4812 -38.6771 0 
-6.5416 23.4891 0 
28.8995 51.5732 0 
38.9558 -10.9391 0 
-4.55694 2.9082 0 
13.7524 -46.6865 0 
52.5311 -32.9745 0 
50.9315 -33.8233 0 
-26.7999 1.26806 0 
-34.2786 -17.5062 0 
-30.8348 -36.9081 0 
-58.7759 -10.6811 0 
-3.61439 52.879 0 
26.0733 -18.6037 0 
50.5954 24.9546 0 
32.5402 -14.8772 0 
-15.7792 -52.4478 0 
-39.1694 32.1545 0 
-34.428 0.00802874 0 
-12.0539 -48.2236 0 
-16.345 9.03156 0 
22.8272 58.0312 0 
7.85648 15.3504 0 
5.18088 45.1896 0 
-56.6857 25.8105 0 
20.0494 12.9308 0 
-46.3642 -1.70191 0 
-24.967 -36.0595 0 
43.3787 -38.7233 0 
12.5168 56.8415 0 
-49.8848 -29.0422 0 
-30.7828 -5.36135 0 
25.7926 -22.7496 0 
22.9686 36.2835 0 
46.2588 34.101 0 
-28.6352 -23.838 0 
43.8709 -18.891 0 
29.4625 12.7963 0 
27.962 43.9444 0 
-27.5467 -16.6377 0 
17.7558 47.2204 0 
-25.2954 20.7403 0 
5.24675 10.6028 0 
12.5607 -20.091 0 
35.4577 -48.1699 0 
-29.8756 9.90433 0 
38.5135 37.6108 0 
-14.4339 -0.919148 0 
-40.2718 -5.79572 0 
-29.6263 -27.9938 0 
4.66714 -5.13663 0 
-14.5238 22.2532 0 
-13.0786 54.3693 0 
-20.6848 47.9368 0 
53.0407 -20.5413 0 
18.4028 -37.2217 0 
30.1605 5.36847 0 
-7.23795 -55.6101 0 
-17.0431 -14.5392 0 
-45.1269 -17.5643 0 
-35.8094 -35.9057 0 
-53.6847 -14.0299 0 
2.27341 -60.8867 0 
-7.48016 -56.3023 0 
32.8295 -4.7222 0 
-48.1272 16.6349 0 
2.05716 26.1138 0 
-8.68602 -32.6639 0 
-26.1543 -41.1948 0 
-26.4119 -37.6376 0 
-57.4436 16.8629 0 
-5.94921 62.0578 0 
13.4109 6.65447 0 
-32.828 27.7096 0 
-36.9374 -37.3525 0 
24.304 29.3169 0 
34.7051 48.9548 0 
6.40167 55.5494 0 
8.27824 -16.3344 0 
-25.0976 32.4386 0 
-47.8463 -13.6867 0 
11.5969 -41.5307 0 
25.6534 -48.4902 0 
-35.515 -40.7305 0 
4.86128 -35.3823 0 
-26.9401 -40.6608 0 
-22.163 58.9521 0 
-8.88496 -40.2064 0 
52.1324 -10.8668 0 
0.130416 -14.9316 0 
26.3022 -18.0823 0 
-2.48765 48.1165 0 
50.1732 -13.5967 0 
9.22248 24.1407 0 
-23.1128 -53.6406 0 
9.06533 -13.8581 0 
-7.15598 -4.4216 0 
-24.6918 -48.2491 0 
-5.57707 -4.05719 0 
-32.3104 33.9739 0 
19.2984 -5.83877 0 
3.3152 -9.33607 0 
3.54573 51.4216 0 
15.1157 1.04133 0 
-24.1169 -53.6283 0 
[...]
<CellData Scalars="wall variable 0">
<DataArray type="Float64" Name="wall length" format="ascii">
3.41152 6.58771 4.55475 1.45358 3.68806 1.07812 4.46102 0.688348 5.93585 3.04943 7.00334 1.02044 3.64784 1.32466 4.37215 1.91476 5.37219 1.32972 7.21848 0.161752 1.60712 3.94072 3.52512 1.87467 2.91676 1.99508 4.38757 1.16258 1.18099 0.57582 8.36864 4.38757 4.27449 3.33613 6.71422 3.529 5.41455 4.05244 0.685891 4.33882 5.82841 1.5382 5.52297 5.6953 4.04604 5.30706 4.11872 3.98128 0.360317 5.45731 0.609069 4.20197 9.24708 1.70425 2.91022 4.21 1.01898 2.35806 0.928717 7.7037 4.87191 1.01898 3.59827 0.952548 1.86053 5.74017 2.98844 7.32339 2.31514 2.48588 1.90612 1.27228 3.13224 3.18533 1.32958 3.84967 3.17636 5.61448 2.80207 5.53431 3.7363 0.789498 3.64687 1.34399 2.5094 1.06787 5.29013 2.58897 7.16015 1.94656 2.69867 1.62311 1.72013 3.18267 6.85175 3.51009 6.22827 6.74006 1.91995 0.345903 3.66476 3.42153 2.99659 0.369435 7.31599 2.96568 2.60919 1.88759 4.27851 7.24513 1.60712 2.39648 2.8545 7.81589 0.764128 10.6001 1.18442 6.59993 0.368746 3.20854 4.04274 0.962873 1.41868 2.18271 0.242769 6.22529 4.22035 2.81262 4.76612 4.72565 4.76204 1.78814 7.28819 4.99486 2.0629 1.11161 2.80186 5.70546 1.80335 1.96485 2.05318 5.42442 6.82056 1.62522 5.50515 0.936267 2.79812 1.80335 0.233974 6.46603 4.16321 0.759713 3.56334 1.86003 2.63938 4.79839 0.392445 3.76192 2.06199 0.479441 0.5579 4.30803 5.41455 1.56834 0.608451 7.17591 0.688348 3.80209 0.439556 1.45358 4.87625 2.78452 7.22227 2.20556 4.3351 2.3669 3.18966 0.998725 5.15868 1.5396 0.991225 8.22384 2.16305 6.84727 2.69743 0.884274 2.80855 2.73884 1.7053 0.994685 1.12705 7.00129 2.39648 0.161752 0.147354 5.00219 2.1039 0.361466 1.78473 0.258085 1.5893 7.0443 0.458868 0.56822 2.96326 1.26417 6.0315 3.62398 3.5445 4.20423 5.01054 2.6582 1.56691 1.36922 5.15868 8.86395 2.37258 2.01667 7.07137 0.572418 6.3799 0.206429 0.971409 2.03346 5.29013 3.36569 7.07388 0.456681 7.83435 3.12915 1.34399 7.6146 1.26325 5.26049 3.90247 5.57026 0.91695 4.22035 1.98773 1.21335 7.57629 0.410032 0.540018 1.11976 3.4389 5.13514 1.00972 1.85569 4.31666 1.25971 3.27141 2.40586 1.00972 1.14109 4.04604 4.09432 0.917009 4.25286 1.97304 2.28088 6.35979 4.94504 0.68699 4.73109 1.20889 8.18235 3.0221 4.53093 0.506054 1.36155 3.15146 5.09026 3.51713 3.682 2.35684 1.90612 5.89806 0.943605 5.64972 0.755219 5.53526 0.190912 9.36426 0.211377 7.97855 1.97304 4.4429 0.995456 3.24327 2.3754 1.96833 4.71049 2.15152 1.81108 2.72405 0.290206 2.59747 3.74877 8.50362 9.00627 1.37467 0.584499 0.541083 7.7037 2.31615 2.3669 2.61081 2.32188 1.72531 0.493792 5.50836 4.26202 1.12587 0.128314 5.78966 0.811667 9.66479 0.601527 2.57735 5.55315 1.94656 2.51585 0.958869 0.892071 1.73121 2.95022 1.82302 5.74391 4.38049 5.01054 0.727508 3.79976 2.54445 2.95866 2.52351 0.589864 5.2649 1.7053 8.13596 0.365414 5.00699 1.60438 2.13677 1.79376 0.426961 2.28088 7.97855 4.49619 3.79167 2.0079 7.84861 2.90428 6.40988 3.62918 1.67231 1.72792 1.82726 1.62226 2.15351 0.60141 7.31599 0.298306 1.8544 3.62918 3.00682 0.508346 1.88759 1.72373 0.808154 0.884776 2.18051 4.84484 1.10229 8.11735 4.94504 1.02514 3.62411 3.50851 5.18537 2.37101 9.39889 2.69743 0.946698 1.55197 5.4578 4.56098 6.21539 3.45024 1.42574 1.10794 0.474523 1.38817 3.69614 4.60682 0.98656 1.90814 6.71762 1.14405 6.45129 3.18533 1.93865 1.54485 2.90593 1.03295 0.151772 2.95866 0.905109 4.18651 0.596483 1.62226 9.34472 3.12242 0.664697 0.731901 6.52555 1.80299 1.10794 7.03696 0.712614 7.40273 8.87339 1.18389 0.540898 3.12594 1.49048 7.11631 0.837043 0.626471 2.18051 3.80176 0.422429 3.93409 1.10663 2.63938 5.18379 5.37924 1.15422 3.23512 2.99659 3.26274 0.362458 5.61705 7.80968 6.52609 0.39687 4.83909 0.315913 6.11701 2.36402 6.93857 0.271893 3.83246 3.86946 2.58123 6.68993 0.731901 5.29437 3.73288 1.15322 6.71383 1.43418 2.63908 2.84432 6.1757 0.271893 0.12303 9.13961 0.684837 2.77469 0.891429 7.68689 2.24547 4.00325 1.01762 6.35979 0.426961 4.09028 1.68053 0.607335 1.82425 5.11075 0.622771 4.12918 0.996784 7.99543 3.11063 7.72256 0.440643 0.971409 8.65392 0.540018 1.74346 2.33723 1.02031 3.26918 0.609568 2.67769 0.29792 5.5543 2.31902 1.02031 2.72665 1.84651 3.92839 1.2949 6.44762 1.16258 6.71422 0.691759 0.268875 2.41515 2.42836 2.73058 2.36926 4.43888 4.90557 3.4736 7.02805 2.25621 2.31514 0.258026 0.727645 3.74877 3.94959 7.5306 1.99508 5.24175 2.63271 0.889798 1.82425 0.302187 4.27449 4.49619 0.499482 5.61932 3.4028 0.854906 6.08946 1.86096 2.09784 2.80855 8.31431 1.03295 9.34471 0.222898 7.77663 0.892071 4.33411 2.56508 4.94207 1.51797 6.70515 1.36155 2.68185 6.3799 1.57105 1.80581 4.70491 2.09663 3.31667 5.81144 0.506054 8.35538 1.11976 8.65392 0.206429 2.68185 5.50109 4.86067 1.06442 6.3976 6.71383 1.24926 4.55139 3.99493 1.78009 3.74736 0.512461 3.83246 2.24547 3.99688 4.5512 0.607335 3.34749 2.74253 7.02805 0.385167 3.52758 0.444772 3.41152 5.12662 1.29912 2.55278 0.585784 2.62317 7.57629 3.31975 4.01725 3.84513 0.409112 7.06845 2.88221 3.72983 4.83909 0.430022 0.380075 9.81232 0.37155 6.31033 3.41108 2.6582 0.439546 3.10046 1.25971 3.82346 5.54021 1.15981 6.16617 1.98382 2.69822 0.965393 1.37503 0.572035 4.12918 7.66348 2.36005 3.52758 2.21473 2.31832 8.77782 5.11238 2.29627 0.56822 4.29162 0.36862 5.95446 2.49771 2.20414 1.69432 3.27273 0.474523 0.609375 5.86972 1.42699 5.74017 0.746313 5.17954 5.11238 0.583626 0.420787 9.26808 4.09028 1.79376 5.49506 3.13965 0.308936 9.36426 1.64695 1.03352 3.48681 2.05443 4.76612 1.54354 2.68578 1.5382 1.87932 2.71781 3.00682 6.40988 3.84011 1.90814 1.13287 2.78452 2.31615 0.928717 6.38291 0.73612 10.2542 2.34118 6.64718 2.8259 1.32137 4.75611 5.50242 0.484094 2.39225 6.8028 2.93123 5.74391 1.63141 3.06566 0.464759 1.49773 0.962873 0.662623 2.65905 3.25086 0.456681 0.447936 1.89044 2.59747 8.57237 3.6567 7.02807 1.95498 5.02687 3.07773 0.780858 4.80571 3.88258 3.82346 4.31666 2.41828 3.96033 5.37219 0.44189 4.67388 2.42776 3.98233 3.74711 3.88097 3.36217 1.76483 4.49464 5.94177 6.96023 2.89959 1.73179 2.65061 4.11355 1.12705 3.66015 1.50735 6.27475 0.798117 10.6769 0.583612 2.88401 3.42158 6.98027 0.367789 6.7448 1.34383 0.57228 4.87625 4.55475 6.00508 2.09313 3.19333 1.39358 10.2542 4.13384 6.46603 4.48728 2.95022 4.65802 5.45731 4.80717 1.08979 5.23402 1.78935 6.65114 1.9529 0.798117 1.55065 3.95214 0.352382 6.74511 2.15351 3.24323 1.13829 3.88639 2.55006 5.4578 3.31356 6.59993 0.565218 9.04676 3.34749 1.68053 9.26808 1.67959 2.3302 5.75087 0.346942 1.51797 6.81862 1.83679 5.07799 4.55139 0.934177 0.84396 2.8389 3.29518 1.18782 3.14366 3.29755 1.35344 6.91218 1.16494 2.42776 3.60999 1.75131 3.86946 0.512461 9.04676 2.69548 5.54947 1.71268 1.78695 0.409347 2.3302 1.17153 0.716078 2.58123 3.32631 5.75006 7.11631 1.47576 7.37824 2.09313 0.482564 3.63718 5.50242 0.615097 1.99908 10.5754 0.368511 2.65061 2.83825 5.33675 4.11621 4.96453 3.25054 1.80669 1.89724 1.32137 0.891429 1.08791 1.10229 3.26314 3.55319 2.51498 0.822114 7.96348 0.84396 3.48399 3.07773 1.71073 2.80186 8.48442 0.899185 9.32544 1.41868 1.49773 8.86293 1.69432 0.649596 8.25819 1.91968 0.670651 3.69721 3.97767 1.80669 1.86191 4.9433 5.75087 0.409347 7.96788 0.608451 9.53873 0.911041 0.493792 1.83471 6.48609 3.50851 1.07201 0.302187 7.99543 8.89454 0.691759 3.33613 4.28856 0.648214 3.32212 3.52897 0.409112 1.6243 4.39856 0.425583 1.61674 1.65719 4.86067 0.595115 1.33874 2.64838 4.56846 1.24106 5.81517 0.666343 2.4201 1.26417 7.40931 1.27803 0.924543 3.20323 1.07812 2.76153 3.31975 0.378616 5.27873 5.99447 6.54277 1.16045 3.66015 0.258085 2.80281 2.19688 2.86297 3.67881 5.61963 5.46067 6.79117 0.219658 4.22133 0.702579 3.34204 5.88743 2.49771 3.04488 2.86404 0.543022 7.28819 3.44355 1.71684 0.764128 2.52558 3.51009 0.756567 0.345903 9.60718 5.33002 2.80281 3.17724 0.756567 0.446599 7.45693 2.91022 0.879985 2.94607 2.58897 2.03346 0.927587 0.337008 0.589864 6.6223 2.18271 2.05443 6.0913 0.609375 6.71762 3.84011 2.90714 1.1729 3.54232 6.06956 3.41005 2.98307 0.354144 6.52609 1.01449 1.04663 4.11355 0.368511 3.25612 0.856772 2.8545 7.00129 1.92251 0.300872 5.6953 0.969985 0.820299 3.73293 2.89959 0.456943 2.09663 3.3918 6.15614 5.41109 2.48513 3.28825 2.10195 5.18377 2.85909 4.15912 1.43418 3.74736 6.59783 7.03696 1.42574 2.98004 0.719224 0.965393 7.7803 0.607667 1.30694 2.73251 1.79284 7.03942 3.24323 0.508346 2.71781 4.23644 0.806923 5.18261 3.94072 10.6001 1.71684 2.66633 2.36564 3.13819 1.91995 0.282135 1.99908 2.52653 4.80717 0.360317 0.691019 0.63074 9.60718 2.87716 6.68752 5.28929 1.98382 0.557244 4.92924 6.70754 2.87219 1.08364 1.67325 3.14414 0.218292 1.83471 5.78966 2.29851 7.07137 2.83825 6.27475 0.907017 5.09125 1.78935 0.60995 2.16866 0.433741 0.583612 5.05089 1.62522 4.13384 1.73121 7.77663 4.4429 4.25286 1.34685 1.79203 4.71348 0.469224 2.71998 2.58441 0.29 3.5445 3.39015 0.401409 10.0567 1.08008 4.7913 0.733279 2.37101 2.55006 1.18442 9.32544 0.789498 1.77453 4.09116 1.96833 1.89044 8.39137 3.60999 4.67388 4.13081 1.62311 6.36788 2.45484 4.98109 2.63271 4.96855 0.350125 2.31832 4.39572 2.66412 4.7913 3.64631 1.32958 6.45129 1.16045 0.61096 9.84008 0.936267 0.686552 8.09834 0.907017 1.50735 1.34503 7.50194 1.50606 3.73288 4.99409 0.976325 0.909137 2.72593 2.10195 1.78009 2.62731 0.780858 7.27839 4.47102 5.5543 1.1163 1.6655 3.90247 1.08312 5.11505 2.37977 6.76751 2.85715 3.56334 1.13829 5.18261 4.22539 0.389881 3.00172 3.83374 3.79167 1.86096 3.90127 1.54485 5.82956 1.1507 7.96419 3.26274 3.42153 2.92722 0.928744 3.63757 1.43394 1.86191 2.71989 0.820193 5.18377 2.72593 1.42643 4.18484 5.27873 2.63999 9.06486 0.773173 1.17643 7.15799 3.12594 8.06165 0.733279 2.66412 1.14405 8.31431 0.884274 9.39889 4.07447 3.41005 3.15992 7.72256 2.16278 1.95498 3.82488 2.5094 0.447065 8.25819 0.626471 7.33683 2.95957 3.26314 4.84484 0.375562 9.81232 3.01883 3.74711 2.20507 2.43708 1.60947 2.61081 4.3351 1.90746 0.61096 6.54277 4.48095 6.75417 3.55319 2.95957 2.02076 3.24404 1.37503 7.03942 3.77887 6.76751 3.48681 4.43885 0.994685 5.2649 6.0913 3.01436 4.19813 4.56846 2.26167 6.95419 1.21102 1.70738 7.24513 2.98026 3.61942 5.64972 0.505877 4.17297 3.26918 2.31902 0.808065 6.21539 4.29162 0.458868 3.9586 3.41355 5.16584 1.67325 7.41847 1.8036 2.59817 1.4867 4.50718 0.298306 0.369435 7.80968 0.969676 0.859578 1.8036 2.50811 6.4397 2.79025 0.392445 3.529 0.509198 4.48095 0.963622 5.17833 1.49048 4.5563 6.52555 6.68993 0.716078 3.03049 1.77818 3.45448 2.60945 0.545879 6.30995 6.53427 6.81862 1.57105 0.572418 2.29851 0.128314 1.44775 6.8028 6.5493 4.53855 2.52558 7.81589 0.856772 3.70379 6.22827 0.233974 6.82056 1.16524 1.73265 1.63141 1.82302 4.48728 0.361466 3.34308 4.53855 0.56401 1.72531 8.54621 0.217213 0.686552 5.50515 5.05089 10.6769 1.9529 4.02508 5.17833 2.38736 3.32631 1.15322 1.50606 0.482564 6.00508 0.73612 1.89724 3.97767 6.14609 0.378616 7.06845 3.52897 4.74495 0.745641 2.63999 1.67424 9.06486 0.745641 3.63152 0.712614 7.15799 1.86003 2.85715 3.77887 1.79284 4.90407 5.18379 0.444772 2.36005 0.26327 3.88639 3.83374 2.30166 0.367789 6.58771 0.808065 6.44762 0.1458 1.034 4.41067 2.98004 3.45024 2.45484 2.84245 1.66763 1.42643 1.67424 1.17643 1.69617 5.24617 4.15819 6.41265 3.682 0.732871 2.08273 0.788296 3.69614 8.8714 3.06566 1.73265 3.62148 0.928744 7.27839 2.41828 1.85569 3.98128 1.19922 1.13287 0.98656 5.98443 2.05318 3.4591 7.22227 3.18267 6.45403 0.788296 2.85136 2.88401 0.433741 0.222898 2.73214 1.36922 7.04837 0.368746 3.31356 1.55197 6.0568 0.245144 1.5396 0.544924 4.80571 2.62731 3.99493 5.07799 1.8015 6.35395 4.10197 0.604187 10.0845 2.02613 0.219658 0.285343 1.53389 1.08312 5.26049 0.634412 6.70754 0.68699 5.18537 6.48609 0.218292 4.0744 2.35232 1.67556 9.85131 0.302861 0.1418 4.97747 6.58216 0.439556 8.69344 0.924543 0.876509 4.43888 2.74253 3.68806 2.66704 3.29518 1.9388 2.49121 0.147354 7.21848 1.0842 2.42836 3.39678 4.16321 0.430566 5.53431 6.59023 6.66965 3.80176 0.884776 3.30304 0.36862 5.16584 1.33394 1.67876 1.8015 0.204109 2.86404 0.367233 3.27141 6.16617 0.127353 4.24193 0.822341 2.99207 3.25086 5.35831 2.09676 7.83435 4.45541 4.58539 4.4814 2.29158 0.38697 0.952548 3.89316 0.446599 5.43284 8.04849 0.531879 4.37215 0.334433 2.97681 1.27228 2.35684 6.41265 1.65693 6.08343 0.404166 1.77818 1.21458 4.76599 1.34383 0.204109 10.0845 5.27427 3.17636 0.376041 3.34204 1.96366 5.41109 3.23261 1.72792 8.51769 2.98307 4.07447 3.11063 0.410032 2.62317 11.2947 2.73058 1.0842 2.80207 3.12915 2.09676 0.235596 8.3013 1.89867 0.904282 3.179 2.84432 3.46543 0.722371 6.21744 2.71989 7.96788 1.78695 4.63731 1.5893 2.12603 0.682112 3.39015 3.62398 4.38049 1.86908 9.85131 2.29158 2.43879 2.46222 0.601527 1.79389 7.16805 1.60438 6.86901 0.313118 0.49298 4.97747 3.91127 1.35344 3.51148 3.19333 7.37824 3.76232 4.09116 2.09871 0.950866 4.84158 4.71049 0.952706 5.4406 4.8834 1.6243 3.84513 2.37258 0.440643 3.15992 6.06956 7.19387 0.125657 9.73717 1.31613 5.54021 3.88258 0.544924 1.83679 1.86053 8.04849 0.875207 0.722371 1.40766 5.81517 0.646081 0.746313 2.52295 3.76192 2.79025 4.02508 7.50194 2.59817 0.859578 4.96195 0.57582 3.70371 5.82644 0.509198 4.33882 4.58518 2.22421 2.51498 6.75417 0.837043 5.75006 2.38736 0.963622 2.02076 7.33683 4.50718 3.99404 4.22133 2.02613 4.92924 1.72013 4.13081 0.44189 1.91476 0.531879 4.15819 6.45403 7.68689 7.96348 0.7951 3.99688 4.63731 1.71268 1.39071 3.9586 7.0443 0.282135 6.74006 3.70379 3.25612 10.5754 0.638334 5.09026 2.39824 3.63757 1.19922 4.11872 2.32166 2.60945 3.56329 3.31667 0.456943 6.96023 2.85909 0.820193 2.12603 6.0315 2.4201 6.89997 2.90714 6.38291 2.35806 4.87191 1.42699 2.39005 2.03713 7.5306 0.748322 2.19688 5.33002 0.63074 2.3102 0.447065 7.16015 2.94607 7.65345 1.91968 4.15912 6.89997 0.666343 1.40766 3.46543 2.63908 6.09634 7.10633 1.84651 3.6706 0.346942 4.9433 1.43394 2.39824 3.15146 6.70515 0.675083 2.18097 5.66802 3.92839 7.10633 1.56834 0.57228 4.76599 5.41608 9.53873 2.1039 7.0589 0.95112 0.615097 4.75611 1.44775 3.34308 1.72373 2.60919 1.17301 3.86999 1.1163 0.29792 10.0531 4.62472 5.35244 1.74346 4.47102 1.53389 1.24926 6.1757 3.179 1.85348 3.6567 3.48399 0.934177 0.995108 0.670651 7.65345 0.879985 1.70425 0.541083 10.0852 5.74677 6.21744 0.875207 5.43284 0.337008 3.91728 0.755219 3.61942 1.54739 0.684837 1.29086 4.58539 1.08364 2.25226 2.48513 1.96366 1.69224 2.50811 7.41847 2.01667 7.19387 1.04663 0.897556 4.0744 3.14414 3.7363 0.430566 4.79839 1.10663 3.39207 2.09871 1.77453 3.89316 3.59827 4.21 7.45693 0.795673 10.2928 3.321 9.09402 2.8389 8.48442 1.11161 0.909156 9.09402 1.11407 0.125657 1.95761 0.974694 2.52723 1.06442 1.65719 3.4815 5.4406 2.36926 8.3013 2.12178 2.86127 3.70371 1.18099 1.14109 5.13514 2.22617 3.0221 0.638334 5.30706 3.88097 3.01883 0.380075 5.20385 3.99321 4.11693 6.78451 0.634056 1.75488 3.25036 2.55278 3.17724 5.61963 0.825841 1.58854 1.53643 4.72565 0.543022 1.11407 3.321 0.898415 2.14954 0.559771 3.60101 9.73717 4.22347 5.48222 1.98773 2.40586 2.99207 6.24102 8.06165 0.540898 1.56689 2.68269 5.09125 8.09834 0.217213 6.65114 3.80209 4.46102 3.20323 8.69344 0.385167 3.4736 5.08993 2.84245 4.39572 2.21473 2.28848 6.3976 2.52723 3.4319 3.04943 0.494244 4.98109 5.24617 2.43361 5.11075 0.889798 2.85323 8.70236 1.55626 3.12242 6.59783 0.268875 8.89454 0.996784 0.572035 3.24404 2.37977 6.36873 0.583626 5.95446 3.30304 4.45587 1.1729 2.39005 1.9388 6.91218 3.76232 1.47576 0.95112 4.35696 2.64838 5.89929 2.88221 0.375562 0.5871 2.68187 2.26167 0.334433 1.32466 4.3705 0.727508 4.20423 0.29 7.31509 8.87339 2.24389 9.56211 0.818527 3.57813 1.14693 4.20197 4.53132 3.42158 2.85136 2.08273 1.75131 6.36788 2.69867 5.55315 1.55401 2.36402 1.24424 2.0079 5.82956 1.93865 3.13224 2.79257 0.820299 6.49314 6.0568 0.946698 6.84727 2.97681 7.31509 2.58441 2.6913 2.98844 2.91676 2.04119 1.83095 4.96855 5.24175 0.646081 7.40931 2.96326 2.29627 5.17954 2.98026 4.27851 8.11735 1.08791 2.77469 1.54739 4.58224 0.389881 0.405684 1.80581 3.63746 6.08343 3.64687 8.39137 0.447936 7.6146 4.90557 0.876509 1.27803 4.18484 1.66763 5.08993 0.609069 4.65802 0.697988 1.55065 6.98027 4.53132 0.566838 5.70546 1.71073 5.02687 2.16278 0.649596 3.25054 3.0877 0.566631 3.6706 2.72665 2.33723 5.35244 0.478363 3.10046 2.08284 3.61953 1.79389 9.66479 1.07201 3.62411 1.23707 0.494244 5.93585 7.17591 3.61166 5.89806 2.48588 2.25621 2.03713 3.63746 5.81144 3.56329 3.45448 0.404166 4.53093 2.22617 3.4389 8.35538 0.663463 7.06122 1.50534 0.1458 1.2949 5.66802 2.48399 2.22421 4.87891 4.00325 4.5512 0.7951 0.822114 2.68269 6.49605 1.79459 4.11283 2.87716 0.638763 3.62148 1.16524 5.42442 5.98443 4.60682 0.439546 8.86395 0.998725 2.07632 7.45247 2.08284 1.80299 4.5563 3.93409 5.10338 0.505877 4.56098 2.6913 2.71998 6.05951 0.258026 7.32339 1.02373 8.36864 4.96195 0.969676 5.61705 1.08979 2.52653 5.33675 2.16866 6.82938 5.00219 2.49121 4.35696 7.0589 5.23402 6.82938 0.60995 3.95214 0.697988 3.63718 6.14609 3.69721 0.995108 2.74702 0.484094 3.63152 4.74495 3.32212 1.51275 2.24389 7.40273 0.239926 9.34472 1.82726 3.23261 6.15614 1.02044 8.04787 1.95761 0.952706 4.01725 2.76153 2.48399 2.18097 4.63969 2.72405 1.67819 7.52986 0.806923 4.86956 1.92251 4.70491 0.405684 4.22539 3.17517 2.92722 3.66476 0.60141 6.74511 3.04488 5.86972 3.54232 4.45587 0.367233 4.26202 1.49281 6.30995 0.450837 5.38892 2.30166 3.00172 4.58224 1.65693 6.7448 0.91695 5.6283 1.17301 2.96568 1.70738 0.943605 0.308936 2.81262 0.691019 9.24708 1.14693 0.732871 3.51713 3.61166 2.3102 1.38817 3.27273 8.86293 0.464759 8.8714 4.30803 10.0652 1.34685 0.917009 1.16842 4.05244 4.39856 4.8834 3.4815 1.24106 4.19813 4.03818 1.01449 6.11701 2.65088 4.73109 2.35232 0.897556 1.01296 2.07632 3.18966 1.93913 5.53526 3.91728 4.45541 1.16494 0.565218 0.420787 3.57936 3.79976 4.3705 3.64784 3.96033 1.03417 4.10442 0.994813 5.12662 1.21335 5.48222 0.376041 3.84967 3.64631 1.08008 0.899185 2.20414 5.88743 1.56691 3.41108 0.933567 2.81656 1.82455 3.20854 7.04837 0.354144 11.2947 0.585784 3.25036 4.55613 5.20385 0.430022 0.39687 0.26327 8.77782 0.350125 1.83095 5.15858 1.1507 3.17517 0.352382 0.189864 4.10197 4.37586 3.95964 0.450837 0.545879 2.32166 5.94177 0.499482 7.84861 1.24424 0.969985 5.52297 2.68578 0.617303 3.13965 5.45734 0.302861 1.86908 2.54445 3.57936 0.911041 5.41608 1.21458 3.03049 1.49281 5.50836 1.78473 8.54621 2.32188 1.60947 5.99447 4.18651 4.59261 3.4028 5.68111 4.58518 0.685891 1.16842 4.09432 1.01762 4.87891 2.52351 0.151772 0.239926 3.3918 3.82958 0.242769 6.6223 3.36217 3.99321 4.55613 1.75488 2.47117 1.4867 5.82644 2.86127 2.94929 0.702579 3.99404 1.82455 5.72918 2.51585 2.93123 4.04274 0.808154 10.0531 2.67769 3.70632 6.59023 1.90609 4.37586 6.35395 1.67876 4.71819 2.69548 1.02514 8.18235 2.50874 0.595115 5.50109 2.28848 1.23707 0.736481 8.57237 0.290206 4.63969 0.675083 6.09634 0.566631 1.12587 5.38892 3.95964 1.90609 1.17153 1.67959 6.53427 1.55401 2.57735 2.46222 3.42775 0.12303 6.93857 6.95419 2.68187 4.59987 7.38723 5.57026 1.6655 3.86999 5.6283 1.56689 1.18389 3.57813 1.56005 2.5784 6.49605 0.853664 9.34471 2.90593 3.90127 6.08946 2.74702 10.0852 0.584499 0.56401 6.5493 2.39225 1.03352 8.93229 0.991225 0.245144 6.49314 2.16305 4.43885 2.79257 5.61448 5.27427 0.604187 0.189864 1.73179 3.73293 1.90746 2.20556 3.4591 1.96485 2.79812 9.84008 2.41515 6.36873 5.11505 0.759713 3.39678 0.811667 6.85175 2.73214 4.94207 3.34382 0.37155 0.478363 1.85348 0.904282 3.56984 3.36569 1.06787 3.82488 7.02807 2.94929 2.12178 0.235596 5.35831 2.65905 3.02945 5.46067 3.82958 3.28825 2.25226 2.87219 0.634412 1.26325 6.22529 0.905109 8.13596 2.73884 2.09784 0.853664 0.854906 4.59261 1.33874 2.50874 1.20889 2.65088 0.315913 3.72983 5.89929 3.42775 2.43879 4.4814 1.29086 9.13961 1.69224 8.51769 1.67231 1.8544 6.4397 0.727645 6.05951 0.469224 3.95403 1.32307 1.38823 8.50362 5.49506 2.13677 3.91127 0.1418 5.45734 0.557244 7.66348 0.622771 2.43361 1.69617 0.773173 6.24102 0.638763 4.23644 1.87932 5.82841 0.300872 4.86956 0.596483 5.68111 5.61932 0.617303 1.54354 2.90428 5.15858 2.04119 1.87467 1.02373 0.362458 7.96419 1.93913 8.22384 8.93229 1.64695 0.190912 2.81656 2.8344 4.33411 0.958869 5.7291