<VTKFile type="UnstructuredGrid" version="0.1">
<UnstructuredGrid>
<Piece  NumberOfPoints="    2428" NumberOfCells="     405">
<Points>
<DataArray type="Float64" NumberOfComponents="3" format="ascii">
-13.3328 -48.7494 0.0
-11.7324 -51.0926 0.0
-8.85095 -45.6217 0.0
-9.20131 -44.3348 0.0
-10.8356 -44.4456 0.0
-12.68 -45.511 0.0
-13.0712 -47.3015 0.0
29.057 44.6541 0.0
27.6566 44.7249 0.0
26.616 42.0809 0.0
26.9571 38.3799 0.0
27.6843 37.7997 0.0
32.3715 37.8757 0.0
32.6266 39.2691 0.0
35.5347 -26.4616 0.0
34.8408 -22.0593 0.0
27.9395 -25.0238 0.0
26.8235 -26.9823 0.0
27.9218 -28.1901 0.0
34.7671 -26.6803 0.0
-2.5338 22.532 0.0
-7.06775 18.873 0.0
-6.57772 15.7809 0.0
-1.48528 18.6769 0.0
-0.155194 19.9891 0.0
-37.7828 -47.5049 0.0
-35.1447 -50.3183 0.0
-32.3686 -49.414 0.0
-32.5327 -46.3116 0.0
-33.4691 -44.4861 0.0
16.1039 -25.1934 0.0
13.7512 -23.6881 0.0
9.65314 -24.1876 0.0
6.10431 -25.7286 0.0
5.62733 -26.706 0.0
8.54365 -28.9025 0.0
-45.8293 -10.2588 0.0
-43.0783 -13.7505 0.0
-42.3098 -14.1222 0.0
-40.8212 -13.7025 0.0
-41.3226 -9.39498 0.0
-42.4184 -5.98156 0.0
19.075 -21.6864 0.0
17.8392 -19.0976 0.0
13.8986 -21.8223 0.0
14.367 -23.298 0.0
16.7197 -24.8033 0.0
17.1074 -24.882 0.0
36.7684 5.48319 0.0
36.7386 5.22483 0.0
42.0834 7.9361 0.0
41.628 11.133 0.0
38.6809 10.3727 0.0
21.7383 -48.4098 0.0
17.3846 -47.5885 0.0
16.5221 -48.0911 0.0
15.6071 -51.8009 0.0
17.6265 -53.6166 0.0
18.0575 -53.6408 0.0
21.5164 -52.8873 0.0
3.30709 19.3285 0.0
3.19652 18.5899 0.0
7.59487 13.9372 0.0
8.86873 13.683 0.0
9.84248 13.6862 0.0
10.1197 18.4521 0.0
9.25451 18.992 0.0
-58.2236 -19.1575 0.0
-58.2222 -20.9574 0.0
-52.9296 -21.7782 0.0
-51.7314 -20.2799 0.0
-56.7172 -17.2565 0.0
25.0202 29.0785 0.0
25.3053 29.7537 0.0
21.6331 37.6722 0.0
19.206 38.1003 0.0
18.3387 36.3075 0.0
18.343 35.2414 0.0
-14.0484 -12.3781 0.0
-15.1175 -15.5578 0.0
-13.8254 -16.4855 0.0
-9.05121 -18.0515 0.0
-7.818 -17.0263 0.0
-7.42987 -16.2185 0.0
-8.67147 -13.6573 0.0
46.18 -3.74526 0.0
41.9725 -3.21244 0.0
40.4281 -9.45985 0.0
43.072 -9.31704 0.0
45.3993 -6.13027 0.0
46.6854 -4.35392 0.0
-18.7357 -42.0795 0.0
-20.0237 -41.6841 0.0
-20.2058 -41.6424 0.0
-24.6257 -43.2871 0.0
-24.1762 -47.2062 0.0
-20.6089 -49.6958 0.0
-20.2769 -49.6783 0.0
-19.3624 -45.5582 0.0
41.4532 -18.2984 0.0
38.9096 -18.6935 0.0
38.7225 -25.3861 0.0
42.3425 -22.4559 0.0
41.6551 -18.7101 0.0
-50.8896 22.8309 0.0
-53.8548 22.6357 0.0
-54.1371 22.1148 0.0
-55.4285 17.2015 0.0
-52.0653 14.798 0.0
-50.1207 15.8829 0.0
45.5545 -6.55899 0.0
43.2272 -9.74576 0.0
42.904 -12.2872 0.0
43.2956 -13.9293 0.0
46.96 -10.9435 0.0
42.2822 -12.4796 0.0
42.6054 -9.93816 0.0
39.9615 -10.081 0.0
35.3648 -11.4777 0.0
34.99 -12.8438 0.0
35.4376 -15.5395 0.0
-42.3771 -3.46568 0.0
-40.0247 -3.0987 0.0
-40.2878 3.20609 0.0
-42.4235 5.02254 0.0
-43.0789 4.32577 0.0
-43.3982 1.61269 0.0
-43.3417 -2.63947 0.0
-23.9081 27.0484 0.0
-26.4903 24.3305 0.0
-27.3147 22.8146 0.0
-26.5422 19.4723 0.0
-23.992 19.3429 0.0
-22.6363 22.3682 0.0
35.2331 35.4581 0.0
38.1809 38.5014 0.0
36.3771 44.3201 0.0
33.2705 39.1365 0.0
33.0155 37.7431 0.0
50.4282 25.2437 0.0
51.2231 25.4616 0.0
51.8057 30.6572 0.0
51.5118 31.4725 0.0
50.6086 32.6161 0.0
48.1301 33.6212 0.0
-55.671 8.85703 0.0
-55.687 9.66508 0.0
-57.4165 14.1442 0.0
-59.3204 12.6047 0.0
-60.112 11.1035 0.0
-58.3757 6.56853 0.0
-49.3966 23.1803 0.0
-50.4416 22.8015 0.0
-49.6728 15.8535 0.0
-46.7168 15.5142 0.0
-44.3427 16.079 0.0
-0.972764 -46.2847 0.0
-0.00238241 -46.4689 0.0
0.410448 -38.3482 0.0
0.214025 -38.2065 0.0
-3.15679 -39.4922 0.0
-12.677 51.4405 0.0
-13.9922 51.4734 0.0
-15.2547 44.301 0.0
-14.9815 43.4134 0.0
-12.7268 44.0545 0.0
-11.4673 49.9211 0.0
-11.9277 51.0213 0.0
-46.7822 14.9378 0.0
-49.7382 15.2772 0.0
-51.6828 14.1923 0.0
-50.696 11.0393 0.0
-46.0866 10.1459 0.0
-29.7688 -44.4156 0.0
-32.0769 -46.3113 0.0
-31.9127 -49.4138 0.0
-30.4177 -50.2851 0.0
-30.2316 -50.3503 0.0
-27.2335 -48.5459 0.0
9.7226 -43.4029 0.0
11.2505 -38.9434 0.0
11.034 -38.5057 0.0
6.68796 -39.5731 0.0
4.53588 -40.1684 0.0
7.10718 47.8489 0.0
4.01174 49.8834 0.0
1.93195 48.7719 0.0
-3.4535 41.9991 0.0
-2.04768 41.3955 0.0
10.1433 28.4033 0.0
10.2277 26.4374 0.0
14.0433 23.0183 0.0
14.445 23.2823 0.0
14.8221 23.6672 0.0
15.0406 27.2511 0.0
13.5216 29.3874 0.0
10.7404 29.5583 0.0
8.12628 47.2833 0.0
7.17967 47.5783 0.0
-1.97519 41.1248 0.0
-0.28619 39.5661 0.0
-0.0839619 39.4505 0.0
-42.9659 -42.508 0.0
-42.8643 -43.0461 0.0
-41.2066 -45.2362 0.0
-38.6452 -46.6717 0.0
-37.1455 -40.9175 0.0
-43.5608 8.45869 0.0
-46.0364 9.71141 0.0
-50.6457 10.6048 0.0
-51.0166 9.15284 0.0
-50.5089 5.98776 0.0
-5.4516 41.997 0.0
-3.94793 42.0008 0.0
1.43752 48.7736 0.0
-5.54464 48.3246 0.0
-31.8392 -18.269 0.0
-34.5613 -15.3679 0.0
-37.6962 -14.244 0.0
-38.806 -14.6699 0.0
-38.1327 -16.5154 0.0
-35.6182 -20.58 0.0
-27.6369 32.6032 0.0
-28.4086 33.0015 0.0
-31.3681 32.5057 0.0
-31.4363 27.4894 0.0
-28.2981 23.6562 0.0
-27.7355 23.4194 0.0
-26.9112 24.9354 0.0
11.8121 40.4997 0.0
14.1624 41.1424 0.0
13.4538 47.1419 0.0
11.1111 46.7004 0.0
10.1888 44.916 0.0
-25.7377 -56.0865 0.0
-24.7364 -56.1352 0.0
-20.8268 -50.3439 0.0
-24.3941 -47.8542 0.0
-24.9035 -48.2061 0.0
4.90597 52.2495 0.0
4.65561 50.2245 0.0
7.75105 48.19 0.0
8.69766 47.8951 0.0
10.7083 47.2472 0.0
13.051 47.6887 0.0
13.3062 47.7703 0.0
32.9544 14.4953 0.0
36.3936 5.66612 0.0
38.3061 10.5556 0.0
38.2557 10.6704 0.0
-21.6028 -16.9144 0.0
-23.8677 -15.375 0.0
-26.4675 -13.8581 0.0
-27.3063 -19.5228 0.0
-25.8063 -20.1781 0.0
9.74626 44.6489 0.0
2.51049 39.8288 0.0
10.1194 39.1406 0.0
11.3695 40.2327 0.0
27.2545 2.76425 0.0
26.564 3.13915 0.0
20.781 -1.63505 0.0
20.448 -4.60207 0.0
21.8617 -5.56188 0.0
25.4408 -3.4677 0.0
12.3666 -14.4895 0.0
16.5339 -11.0721 0.0
13.5267 -9.81305 0.0
10.7249 -11.6811 0.0
9.86468 -12.3811 0.0
9.74059 -15.3946 0.0
10.8857 -15.5826 0.0
27.2761 52.4532 0.0
27.4132 51.5631 0.0
32.9367 46.5619 0.0
35.5017 46.715 0.0
35.0392 48.9046 0.0
31.0047 51.2829 0.0
-7.85333 -43.8671 0.0
-8.64324 -44.3615 0.0
-8.29288 -45.6484 0.0
-6.70751 -51.3607 0.0
-4.5507 -50.2131 0.0
-1.8699 -46.9208 0.0
26.6472 -19.4343 0.0
24.1727 -17.476 0.0
19.6163 -21.6457 0.0
17.6486 -24.8413 0.0
18.1053 -25.4327 0.0
20.3836 -25.4454 0.0
36.5346 17.0104 0.0
38.4191 12.1422 0.0
43.6135 18.1168 0.0
-35.8638 6.57857 0.0
-35.623 7.03876 0.0
-35.7775 9.42042 0.0
-38.4979 10.7402 0.0
-40.9183 11.285 0.0
-42.2259 8.35606 0.0
-42.0343 7.27439 0.0
-16.2402 45.4322 0.0
-18.9876 51.9847 0.0
-19.8944 52.3581 0.0
-20.6471 51.4973 0.0
-20.8812 47.855 0.0
0.258638 -46.5596 0.0
0.608647 -46.6432 0.0
1.98186 -46.1013 0.0
3.0773 -44.7489 0.0
2.92744 -40.5777 0.0
2.4884 -39.5794 0.0
0.671468 -38.4388 0.0
-35.3813 34.3923 0.0
-37.9566 32.367 0.0
-34.6987 26.7943 0.0
-31.9627 27.7125 0.0
-31.8946 32.7288 0.0
-33.3355 34.3543 0.0
14.7871 -57.9482 0.0
17.0546 -54.042 0.0
15.0351 -52.2263 0.0
14.6364 -52.2942 0.0
11.0456 -52.8893 0.0
9.31073 -53.9157 0.0
8.86641 -55.8216 0.0
24.6782 25.8622 0.0
22.8251 21.9859 0.0
29.8456 20.1553 0.0
29.491 20.9104 0.0
27.1627 25.5027 0.0
25.6899 26.3825 0.0
41.2116 0.711823 0.0
42.6688 1.67734 0.0
48.4173 9.74819 0.0
47.8347 10.2944 0.0
42.8092 5.66643 0.0
40.5021 1.98655 0.0
13.7344 -4.09281 0.0
11.2829 -2.68217 0.0
8.11306 -8.25428 0.0
9.33245 -11.3584 0.0
9.68971 -11.8317 0.0
10.55 -11.1317 0.0
25.9563 -3.29787 0.0
28.3711 -4.15889 0.0
32.4131 2.74446 0.0
31.4953 3.43472 0.0
29.396 3.56675 0.0
27.77 2.93408 0.0
42.7508 -14.4907 0.0
42.3592 -12.8486 0.0
35.5146 -15.9085 0.0
35.4831 -16.1036 0.0
35.3482 -17.3006 0.0
36.3955 -18.3945 0.0
38.8126 -18.1563 0.0
41.3562 -17.7613 0.0
42.2732 -16.5373 0.0
20.1912 -33.5952 0.0
19.8494 -32.8672 0.0
16.1453 -30.3934 0.0
11.7283 -32.4841 0.0
12.2014 -34.0538 0.0
-7.15253 -17.7037 0.0
-8.38573 -18.7288 0.0
-8.3194 -19.7548 0.0
-3.14026 -26.1405 0.0
-2.13258 -26.6954 0.0
-1.29101 -22.4637 0.0
-6.25035 25.898 0.0
-9.50109 25.7789 0.0
-14.2439 17.0561 0.0
-13.1985 15.5963 0.0
-11.0415 17.4519 0.0
46.5184 14.6994 0.0
42.1523 11.3621 0.0
42.6077 8.16527 0.0
42.8906 6.21467 0.0
47.9161 10.8427 0.0
47.25 13.5014 0.0
-39.6317 -3.22121 0.0
-35.8397 -3.60809 0.0
-35.179 -2.09764 0.0
-36.6089 1.14252 0.0
-39.8948 3.08358 0.0
-1.31664 -3.92749 0.0
-1.18032 -3.85019 0.0
-5.15466 4.8632 0.0
-6.35098 4.72314 0.0
-7.108 0.412253 0.0
28.1783 14.4916 0.0
28.5536 12.7358 0.0
31.5089 11.2277 0.0
31.5132 16.9766 0.0
31.2548 18.608 0.0
30.6741 18.7471 0.0
27.9157 16.1877 0.0
52.3847 17.9875 0.0
53.5962 18.0095 0.0
53.6672 19.5142 0.0
53.4073 23.2289 0.0
51.3346 24.6404 0.0
50.5397 24.4225 0.0
49.2872 23.9822 0.0
47.9193 22.5991 0.0
-26.2261 -56.0218 0.0
-26.0681 -56.0776 0.0
-25.234 -48.1973 0.0
-26.9416 -48.9491 0.0
-29.9396 -50.7535 0.0
-23.8606 -29.3299 0.0
-22.9658 -31.4489 0.0
-21.6235 -31.5687 0.0
-19.2684 -28.7066 0.0
-19.4111 -24.5165 0.0
-19.4648 -23.9399 0.0
-19.9358 -23.3246 0.0
-22.7965 -22.7294 0.0
-26.9622 44.8249 0.0
-27.2235 42.1944 0.0
-25.9964 41.1879 0.0
-22.4591 40.6157 0.0
-20.8313 42.2028 0.0
-21.4877 45.7546 0.0
50.2208 -5.40752 0.0
51.4374 -4.93695 0.0
55.1844 -3.14254 0.0
53.4618 0.628174 0.0
48.6834 -4.06189 0.0
-49.422 -15.5928 0.0
-56.196 -15.1642 0.0
-56.4225 -17.0002 0.0
-51.4366 -20.0236 0.0
-49.61 -20.0607 0.0
-8.51079 -57.2913 0.0
-5.42066 -62.3642 0.0
-2.02286 -59.8292 0.0
-2.00655 -59.4527 0.0
-3.48753 -57.9502 0.0
-38.5878 44.8037 0.0
-37.3269 40.6107 0.0
-36.6071 39.2913 0.0
-33.2234 42.2756 0.0
-33.9503 43.7102 0.0
-38.3637 46.1297 0.0
-20.2663 -40.6726 0.0
-20.0843 -40.7143 0.0
-21.2847 -32.8897 0.0
-21.692 -32.4157 0.0
-23.0344 -32.2959 0.0
-24.5997 -33.5338 0.0
-24.5752 -34.5208 0.0
-24.5702 -34.6751 0.0
47.944 13.5533 0.0
48.6101 10.8946 0.0
49.1927 10.3483 0.0
51.0177 8.60949 0.0
52.5544 8.77305 0.0
55.9122 10.893 0.0
55.5009 12.5256 0.0
58.5239 9.39303 0.0
56.2615 10.5089 0.0
52.9037 8.38897 0.0
53.3395 5.8283 0.0
54.241 2.95233 0.0
22.6437 -11.9544 0.0
22.3687 -11.5501 0.0
12.8471 -14.6672 0.0
11.3662 -15.7603 0.0
12.5083 -16.5089 0.0
16.8121 -15.943 0.0
[...]
<CellData Scalars="cell variable 4" Vectors="cell vector">
<DataArray type="Float64" NumberOfComponents="3" Name="cell vector" format="ascii">
0 0 0
0 0 0
0 0 0
0 0 0
0 0 0
0 0 0
0 0 0
0 0 0
0 0 0
0 0 0
0 0 0
0 0 0
0 0 0
0 0 0
0 0 0
0 0 0
0 0 0
0 0 0
0 0 0
0 0 0
0 0 0
0 0 0
0 0 0
0 0 0
0 0 0
0 0 0
0 0 0
0 0 0
0 0 0
0 0 0
0 0 0
0 0 0
0 0 0
0 0 0
0 0 0
0 0 0
0 0 0
0 0 0
0 0 0
0 0 0
0 0 0
0 0 0
0 0 0
0 0 0
0 0 0
0 0 0
0 0 0
0 0 0
0 0 0
0 0 0
0 0 0
0 0 0
0 0 0
0 0 0
0 0 0
0 0 0
0 0 0
0 0 0
0 0 0
0 0 0
0 0 0
0 0 0
0 0 0
0 0 0
0 0 0
0 0 0
0 0 0
0 0 0
0 0 0
0 0 0
0 0 0
0 0 0
0 0 0
0 0 0
0 0 0
0 0 0
0 0 0
0 0 0
0 0 0
0 0 0
0 0 0
0 0 0
0 0 0
0 0 0
0 0 0
0 0 0
0 0 0
0 0 0
0 0 0
0 0 0
0 0 0
0 0 0
0 0 0
0 0 0
0 0 0
0 0 0
0 0 0
0 0 0
0 0 0
0 0 0
0 0 0
0 0 0
0 0 0
0 0 0
0 0 0
0 0 0
0 0 0
0 0 0
0 0 0
0 0 0
0 0 0
0 0 0
0 0 0
0 0 0
0 0 0
0 0 0
0 0 0
0 0 0
0 0 0
0 0 0
0 0 0
0 0 0
0 0 0
0 0 0
0 0 0
0 0 0
0 0 0
0 0 0
0 0 0
0 0 0
0 0 0
0 0 0
0 0 0
0 0 0
0 0 0
0 0 0
0 0 0
0 0 0
0 0 0
0 0 0
0 0 0
0 0 0
0 0 0
0 0 0
0 0 0
0 0 0
0 0 0
0 0 0
0 0 0
0 0 0
0 0 0
0 0 0
0 0 0
0 0 0
0 0 0
0 0 0
0 0 0
0 0 0
0 0 0
0 0 0
0 0 0
0 0 0
0 0 0
0 0 0
0 0 0
0 0 0
0 0 0
0 0 0
0 0 0
0 0 0
0 0 0
0 0 0
0 0 0
0 0 0
0 0 0
0 0 0
0 0 0
0 0 0
0 0 0
0 0 0
0 0 0
0 0 0
0 0 0
0 0 0
0 0 0
0 0 0
0 0 0
0 0 0
0 0 0
0 0 0
0 0 0
0 0 0
0 0 0
0 0 0
0 0 0
0 0 0
0 0 0
0 0 0
0 0 0
0 0 0
0 0 0
0 0 0
0 0 0
0 0 0
0 0 0
0 0 0
0 0 0
0 0 0
0 0 0
0 0 0
0 0 0
0 0 0
0 0 0
0 0 0
0 0 0
0 0 0
0 0 0
0 0 0
0 0 0
0 0 0
0 0 0
0 0 0
0 0 0
0 0 0
0 0 0
0 0 0
0 0 0
0 0 0
0 0 0
0 0 0
0 0 0
0 0 0
0 0 0
0 0 0
0 0 0
0 0 0
0 0 0
0 0 0
0 0 0
0 0 0
0 0 0
0 0 0
0 0 0
0 0 0
0 0 0
0 0 0
0 0 0
0 0 0
0 0 0
0 0 0
0 0 0
0 0 0
0 0 0
0 0 0
0 0 0
0 0 0
0 0 0
0 0 0
0 0 0
0 0 0
0 0 0
0 0 0
0 0 0
0 0 0
0 0 0
0 0 0
0 0 0
0 0 0
0 0 0
0 0 0
0 0 0
0 0 0
0 0 0
0 0 0
0 0 0
0 0 0
0 0 0
0 0 0
0 0 0
0 0 0
0 0 0
0 0 0
0 0 0
0 0 0
0 0 0
0 0 0
0 0 0
0 0 0
0 0 0
0 0 0
0 0 0
0 0 0
0 0 0
0 0 0
0 0 0
0 0 0
0 0 0
0 0 0
0 0 0
0 0 0
0 0 0
0 0 0
0 0 0
0 0 0
0 0 0
0 0 0
0 0 0
0 0 0
0 0 0
0 0 0
0 0 0
0 0 0
0 0 0
0 0 0
0 0 0
0 0 0
0 0 0
0 0 0
0 0 0
0 0 0
0 0 0
0 0 0
0 0 0
0 0 0
0 0 0
0 0 0
0 0 0
0 0 0
0 0 0
0 0 0
0 0 0
0 0 0
0 0 0
0 0 0
0 0 0
0 0 0
0 0 0
0 0 0
0 0 0
0 0 0
0 0 0
0 0 0
0 0 0
0 0 0
0 0 0
0 0 0
0 0 0
0 0 0
0 0 0
0 0 0
0 0 0
0 0 0
0 0 0
0 0 0
0 0 0
0 0 0
0 0 0
0 0 0
0 0 0
0 0 0
0 0 0
0 0 0
0 0 0
0 0 0
0 0 0
0 0 0
0 0 0
0 0 0
0 0 0
0 0 0
0 0 0
0 0 0
0 0 0
0 0 0
0 0 0
0 0 0
0 0 0
0 0 0
0 0 0
0 0 0
0 0 0
0 0 0
0 0 0
0 0 0
0 0 0
0 0 0
0 0 0
0 0 0
0 0 0
0 0 0
0 0 0
0 0 0
0 0 0
0 0 0
0 0 0
0 0 0
0 0 0
0 0 0
0 0 0
0 0 0
0 0 0
0 0 0
0 0 0
0 0 0
0 0 0
</DataArray>
<DataArray type="Float64" Name="cell vector length" format="ascii">
0 0 0 0 0 0 0 0 0 0 0 0 0 0 0 0 0 0 0 0 0 0 0 0 0 0 0 0 0 0 0 0 0 0 0 0 0 0 0 0 0 0 0 0 0 0 0 0 0 0 0 0 0 0 0 0 0 0 0 0 0 0 0 0 0 0 0 0 0 0 0 0 0 0 0 0 0 0 0 0 0 0 0 0 0 0 0 0 0 0 0 0 0 0 0 0 0 0 0 0 0 0 0 0 0 0 0 0 0 0 0 0 0 0 0 0 0 0 0 0 0 0 0 0 0 0 0 0 0 0 0 0 0 0 0 0 0 0 0 0 0 0 0 0 0 0 0 0 0 0 0 0 0 0 0 0 0 0 0 0 0 0 0 0 0 0 0 0 0 0 0 0 0 0 0 0 0 0 0 0 0 0 0 0 0 0 0 0 0 0 0 0 0 0 0 0 0 0 0 0 0 0 0 0 0 0 0 0 0 0 0 0 0 0 0 0 0 0 0 0 0 0 0 0 0 0 0 0 0 0 0 0 0 0 0 0 0 0 0 0 0 0 0 0 0 0 0 0 0 0 0 0 0 0 0 0 0 0 0 0 0 0 0 0 0 0 0 0 0 0 0 0 0 0 0 0 0 0 0 0 0 0 0 0 0 0 0 0 0 0 0 0 0 0 0 0 0 0 0 0 0 0 0 0 0 0 0 0 0 0 0 0 0 0 0 0 0 0 0 0 0 0 0 0 0 0 0 0 0 0 0 0 0 0 0 0 0 0 0 0 0 0 0 0 0 0 0 0 0 0 0 0 0 0 0 0 0 0 0 0 0 0 0 0 0 0 0 0 0 0 0 0 0 0 0 0 0 0 0 0 0 0 0 0 0 0 0 0 0 0 0 0 0 0 0 0 0 0 0 0 0 0 0 0 0 
</DataArray>
<DataArray type="Float64" Name="cell variable 4" format="ascii">
0.514292 0.434405 0.657465 1.07467 0.437452 0.94865 0.542818 0.94865 0.736473 0.399988 1.14226 0.479217 0.790107 1.04461 0.573608 0.66381 0.573608 0.495708 0.573608 0.573608 0.542818 0.99432 0.511974 0.511974 0.332003 0.495708 0.789941 0.503886 0.495708 0.437452 0.789941 0.626025 0.980966 0.626025 0.437452 0.495708 0.36504 0.631062 0.673042 0.626025 0.393247 0.343308 0.848855 0.919422 0.626025 1.10185 1.11547 0.434405 0.514292 0.657465 0.848855 0.8063 0.503886 0.789941 0.673042 0.442722 1.06245 0.736473 1.11547 0.912892 0.573608 0.708918 1.04461 1.07467 0.736473 0.542818 1.12037 0.848855 0.50937 0.393247 0.631062 0.503886 0.45141 0.542818 0.514292 0.371127 0.66381 0.50937 0.45141 1.11547 0.442722 0.708918 0.495708 0.790107 0.45141 0.912892 1.04461 1.10185 1.14226 0.371127 0.393381 0.708918 0.36504 0.313432 0.980966 0.980966 0.763876 0.919422 0.503886 0.542818 0.503886 1.04461 0.919422 0.495708 0.631062 0.919422 0.479217 0.542818 0.434405 0.912892 0.542818 0.790107 0.763876 0.673042 0.479217 0.673042 0.542818 0.657465 1.11547 0.789941 0.657465 0.511974 0.399988 0.343308 0.393381 0.673042 0.32239 0.573608 0.99432 0.790107 0.514292 0.763876 0.789941 0.393381 0.66381 1.06245 0.50937 0.789941 1.04461 0.789941 0.790107 1.00681 1.12037 0.33356 0.542818 0.980966 0.66381 0.99432 0.980966 0.848855 0.511974 0.980966 0.313432 0.919422 1.00681 0.332003 0.912892 0.790107 0.542818 1.06245 1.07467 0.94865 0.848855 1.06245 0.511974 0.763876 0.657465 0.434405 1.11547 0.36504 0.573608 0.919422 0.573608 0.371127 0.848855 0.313432 1.00681 1.00681 0.343308 0.371127 1.12037 1.00681 1.00681 0.657465 0.442722 0.437452 0.657465 1.11547 0.313432 0.848855 0.542818 0.912892 1.07467 0.399988 0.50937 0.789941 0.94865 0.763876 0.8063 0.919422 0.790107 0.90618 0.736473 0.657465 0.631062 0.33356 0.45141 0.708918 0.763876 0.442722 0.514292 0.673042 0.631062 0.495708 0.657465 0.36504 0.316217 0.673042 0.573608 1.07467 1.04461 0.316217 0.434405 0.45141 0.343308 0.8063 0.511974 0.332003 0.437452 0.763876 0.316217 0.90618 0.848855 1.10185 1.04461 0.919422 1.10185 0.479217 0.45141 0.631062 0.99432 0.94865 0.343308 1.11547 0.919422 0.399988 0.90618 0.736473 0.36504 1.07467 1.10185 0.573608 0.626025 1.14226 0.316217 0.763876 1.10185 0.45141 0.442722 0.437452 1.11547 0.514292 0.479217 0.45141 0.36504 0.631062 1.14226 0.912892 0.437452 0.919422 1.11547 0.789941 0.631062 0.542818 0.503886 0.631062 0.36504 0.631062 0.94865 0.371127 0.736473 0.736473 0.8063 0.912892 0.789941 0.631062 0.573608 0.626025 0.50937 1.00681 0.912892 1.14226 0.94865 0.371127 0.442722 0.8063 0.66381 1.12037 0.66381 0.673042 0.912892 0.790107 1.12037 0.334198 0.187543 0.848855 0.33356 0.66381 0.434405 0.90618 0.631062 0.542818 1.12037 1.07467 0.912892 0.399988 1.10185 1.11547 0.980966 0.8063 0.631062 0.32239 0.511974 0.399988 0.332003 0.316217 0.542818 1.14226 0.573608 0.33356 1.04461 0.66381 0.708918 0.399988 0.626025 0.479217 0.90618 0.495708 0.36504 0.514292 0.542818 0.631062 1.00681 0.393381 0.99432 1.06245 0.8063 0.848855 0.99432 0.434405 0.657465 0.573608 0.919422 0.442722 0.399988 0.789941 0.514292 0.8063 0.495708 1.14226 1.12037 0.343308 0.657465 0.919422 0.919422 0.763876 0.848855 0.313432 0.789941 1.11547 0.980966 0.631062 0.434405 1.10185 0.90618 0.790107 1.12037 0.393247 0.673042 0.626025 0.66381 0.511974 1.06245 0.514292 0.542818 0.919422 0.626025 0.90618 1.14226 0.631062 0.626025 1.04461 0.90618 0.371127 0.334198 0.919422 0.66381 0.511974 1.06245 0.399988 1.07467 1.11547 0.442722 0.763876 0.980966 
</DataArray>
<DataArray type="Float64" Name="cell variable 5" format="ascii">
0.0364304 0.0503251 0.0226112 0.00858434 0.0496613 0.0109898 0.0328244 0.0109898 0.0181031 0.0588268 0.00760594 0.0417277 0.0157662 0.00908091 0.0294962 0.0221905 0.0294962 0.0391044 0.0294962 0.0294962 0.0328244 0.0100133 0.0367488 0.0367488 0.0831765 0.0391044 0.0157727 0.037893 0.0391044 0.0496613 0.0157727 0.0248813 0.0102849 0.0248813 0.0496613 0.0391044 0.0698059 0.0244954 0.021599 0.0248813 0.0607373 0.0782104 0.0136882 0.0116913 0.0248813 0.00816951 0.00797274 0.0503251 0.0364304 0.0226112 0.0136882 0.0151488 0.037893 0.0157727 0.021599 0.0485429 0.00878122 0.0181031 0.00797274 0.0118572 0.0294962 0.0195097 0.00908091 0.00858434 0.0181031 0.0328244 0.00790366 0.0136882 0.0371116 0.0607373 0.0244954 0.037893 0.0467791 0.0328244 0.0364304 0.0676886 0.0221905 0.0371116 0.0467791 0.00797274 0.0485429 0.0195097 0.0391044 0.0157662 0.0467791 0.0118572 0.00908091 0.00816951 0.00760594 0.0676886 0.0606986 0.0195097 0.0698059 0.0923878 0.0102849 0.0102849 0.016849 0.0116913 0.037893 0.0328244 0.037893 0.00908091 0.0116913 0.0391044 0.0244954 0.0116913 0.0417277 0.0328244 0.0503251 0.0118572 0.0328244 0.0157662 0.016849 0.021599 0.0417277 0.021599 0.0328244 0.0226112 0.00797274 0.0157727 0.0226112 0.0367488 0.0588268 0.0782104 0.0606986 0.021599 0.0877689 0.0294962 0.0100133 0.0157662 0.0364304 0.016849 0.0157727 0.0606986 0.0221905 0.00878122 0.0371116 0.0157727 0.00908091 0.0157727 0.0157662 0.00976872 0.00790366 0.0824658 0.0328244 0.0102849 0.0221905 0.0100133 0.0102849 0.0136882 0.0367488 0.0102849 0.0923878 0.0116913 0.00976872 0.0831765 0.0118572 0.0157662 0.0328244 0.00878122 0.00858434 0.0109898 0.0136882 0.00878122 0.0367488 0.016849 0.0226112 0.0503251 0.00797274 0.0698059 0.0294962 0.0116913 0.0294962 0.0676886 0.0136882 0.0923878 0.00976872 0.00976872 0.0782104 0.0676886 0.00790366 0.00976872 0.00976872 0.0226112 0.0485429 0.0496613 0.0226112 0.00797274 0.0923878 0.0136882 0.0328244 0.0118572 0.00858434 0.0588268 0.0371116 0.0157727 0.0109898 0.016849 0.0151488 0.0116913 0.0157662 0.0120314 0.0181031 0.0226112 0.0244954 0.0824658 0.0467791 0.0195097 0.016849 0.0485429 0.0364304 0.021599 0.0244954 0.0391044 0.0226112 0.0698059 0.0909148 0.021599 0.0294962 0.00858434 0.00908091 0.0909148 0.0503251 0.0467791 0.0782104 0.0151488 0.0367488 0.0831765 0.0496613 0.016849 0.0909148 0.0120314 0.0136882 0.00816951 0.00908091 0.0116913 0.00816951 0.0417277 0.0467791 0.0244954 0.0100133 0.0109898 0.0782104 0.00797274 0.0116913 0.0588268 0.0120314 0.0181031 0.0698059 0.00858434 0.00816951 0.0294962 0.0248813 0.00760594 0.0909148 0.016849 0.00816951 0.0467791 0.0485429 0.0496613 0.00797274 0.0364304 0.0417277 0.0467791 0.0698059 0.0244954 0.00760594 0.0118572 0.0496613 0.0116913 0.00797274 0.0157727 0.0244954 0.0328244 0.037893 0.0244954 0.0698059 0.0244954 0.0109898 0.0676886 0.0181031 0.0181031 0.0151488 0.0118572 0.0157727 0.0244954 0.0294962 0.0248813 0.0371116 0.00976872 0.0118572 0.00760594 0.0109898 0.0676886 0.0485429 0.0151488 0.0221905 0.00790366 0.0221905 0.021599 0.0118572 0.0157662 0.00790366 0.082177 0.221374 0.0136882 0.0824658 0.0221905 0.0503251 0.0120314 0.0244954 0.0328244 0.00790366 0.00858434 0.0118572 0.0588268 0.00816951 0.00797274 0.0102849 0.0151488 0.0244954 0.0877689 0.0367488 0.0588268 0.0831765 0.0909148 0.0328244 0.00760594 0.0294962 0.0824658 0.00908091 0.0221905 0.0195097 0.0588268 0.0248813 0.0417277 0.0120314 0.0391044 0.0698059 0.0364304 0.0328244 0.0244954 0.00976872 0.0606986 0.0100133 0.00878122 0.0151488 0.0136882 0.0100133 0.0503251 0.0226112 0.0294962 0.0116913 0.0485429 0.0588268 0.0157727 0.0364304 0.0151488 0.0391044 0.00760594 0.00790366 0.0782104 0.0226112 0.0116913 0.0116913 0.016849 0.0136882 0.0923878 0.0157727 0.00797274 0.0102849 0.0244954 0.0503251 0.00816951 0.0120314 0.0157662 0.00790366 0.0607373 0.021599 0.0248813 0.0221905 0.0367488 0.00878122 0.0364304 0.0328244 0.0116913 0.0248813 0.0120314 0.00760594 0.0244954 0.0248813 0.00908091 0.0120314 0.0676886 0.082177 0.0116913 0.0221905 0.0367488 0.00878122 0.0588268 0.00858434 0.00797274 0.0485429 0.016849 0.0102849 
</DataArray>
<DataArray type="Float64" Name="cell variable 6" format="ascii">
0.000349016 0.000857904 8.84138e-05 5.3719e-06 0.000885689 1.10661e-05 0.000251962 1.10661e-05 4.69278e-05 0.00127682 3.76475e-06 0.00051123 3.15261e-05 6.33494e-06 0.000187165 8.3838e-05 0.000187165 0.000410215 0.000187165 0.000187165 0.000251962 8.43313e-06 0.00035504 0.00035504 0.00364689 0.000410215 3.156e-05 0.000380196 0.000410215 0.000885689 3.156e-05 0.000115922 9.11938e-06 0.000115922 0.000885689 0.000410215 0.0019794 0.000110922 7.76673e-05 0.000115922 0.00202135 0.00310284 2.09522e-05 1.32528e-05 0.000115922 4.64493e-06 4.32387e-06 0.000857904 0.000349016 8.84138e-05 2.09522e-05 2.80904e-05 0.000380196 3.156e-05 7.76673e-05 0.000858618 5.74138e-06 4.69278e-05 4.32387e-06 1.38076e-05 0.000187165 5.81379e-05 6.33494e-06 5.3719e-06 4.69278e-05 0.000251962 4.21468e-06 2.09522e-05 0.000394946 0.00202135 0.000110922 0.000380196 0.000696942 0.000251962 0.000349016 0.0019189 8.3838e-05 0.000394946 0.000696942 4.32387e-06 0.000858618 5.81379e-05 0.000410215 3.15261e-05 0.000696942 1.38076e-05 6.33494e-06 4.64493e-06 3.76475e-06 0.0019189 0.00151522 5.81379e-05 0.0019794 0.00439847 9.11938e-06 9.11938e-06 3.81646e-05 1.32528e-05 0.000380196 0.000251962 0.000380196 6.33494e-06 1.32528e-05 0.000410215 0.000110922 1.32528e-05 0.00051123 0.000251962 0.000857904 1.38076e-05 0.000251962 3.15261e-05 3.81646e-05 7.76673e-05 0.00051123 7.76673e-05 0.000251962 8.84138e-05 4.32387e-06 3.156e-05 8.84138e-05 0.00035504 0.00127682 0.00310284 0.00151522 7.76673e-05 0.00628005 0.000187165 8.43313e-06 3.15261e-05 0.000349016 3.81646e-05 3.156e-05 0.00151522 8.3838e-05 5.74138e-06 0.000394946 3.156e-05 6.33494e-06 3.156e-05 3.15261e-05 7.8448e-06 4.21468e-06 0.00403961 0.000251962 9.11938e-06 8.3838e-05 8.43313e-06 9.11938e-06 2.09522e-05 0.00035504 9.11938e-06 0.00439847 1.32528e-05 7.8448e-06 0.00364689 1.38076e-05 3.15261e-05 0.000251962 5.74138e-06 5.3719e-06 1.10661e-05 2.09522e-05 5.74138e-06 0.00035504 3.81646e-05 8.84138e-05 0.000857904 4.32387e-06 0.0019794 0.000187165 1.32528e-05 0.000187165 0.0019189 2.09522e-05 0.00439847 7.8448e-06 7.8448e-06 0.00310284 0.0019189 4.21468e-06 7.8448e-06 7.8448e-06 8.84138e-05 0.000858618 0.000885689 8.84138e-05 4.32387e-06 0.00439847 2.09522e-05 0.000251962 1.38076e-05 5.3719e-06 0.00127682 0.000394946 3.156e-05 1.10661e-05 3.81646e-05 2.80904e-05 1.32528e-05 3.15261e-05 1.4406e-05 4.69278e-05 8.84138e-05 0.000110922 0.00403961 0.000696942 5.81379e-05 3.81646e-05 0.000858618 0.000349016 7.76673e-05 0.000110922 0.000410215 8.84138e-05 0.0019794 0.0038835 7.76673e-05 0.000187165 5.3719e-06 6.33494e-06 0.0038835 0.000857904 0.000696942 0.00310284 2.80904e-05 0.00035504 0.00364689 0.000885689 3.81646e-05 0.0038835 1.4406e-05 2.09522e-05 4.64493e-06 6.33494e-06 1.32528e-05 4.64493e-06 0.00051123 0.000696942 0.000110922 8.43313e-06 1.10661e-05 0.00310284 4.32387e-06 1.32528e-05 0.00127682 1.4406e-05 4.69278e-05 0.0019794 5.3719e-06 4.64493e-06 0.000187165 0.000115922 3.76475e-06 0.0038835 3.81646e-05 4.64493e-06 0.000696942 0.000858618 0.000885689 4.32387e-06 0.000349016 0.00051123 0.000696942 0.0019794 0.000110922 3.76475e-06 1.38076e-05 0.000885689 1.32528e-05 4.32387e-06 3.156e-05 0.000110922 0.000251962 0.000380196 0.000110922 0.0019794 0.000110922 1.10661e-05 0.0019189 4.69278e-05 4.69278e-05 2.80904e-05 1.38076e-05 3.156e-05 0.000110922 0.000187165 0.000115922 0.000394946 7.8448e-06 1.38076e-05 3.76475e-06 1.10661e-05 0.0019189 0.000858618 2.80904e-05 8.3838e-05 4.21468e-06 8.3838e-05 7.76673e-05 1.38076e-05 3.15261e-05 4.21468e-06 0.00576492 0.185318 2.09522e-05 0.00403961 8.3838e-05 0.000857904 1.4406e-05 0.000110922 0.000251962 4.21468e-06 5.3719e-06 1.38076e-05 0.00127682 4.64493e-06 4.32387e-06 9.11938e-06 2.80904e-05 0.000110922 0.00628005 0.00035504 0.00127682 0.00364689 0.0038835 0.000251962 3.76475e-06 0.000187165 0.00403961 6.33494e-06 8.3838e-05 5.81379e-05 0.00127682 0.000115922 0.00051123 1.4406e-05 0.000410215 0.0019794 0.000349016 0.000251962 0.000110922 7.8448e-06 0.00151522 8.43313e-06 5.74138e-06 2.80904e-05 2.09522e-05 8.43313e-06 0.000857904 8.84138e-05 0.000187165 1.32528e-05 0.000858618 0.00127682 3.156e-05 0.000349016 2.80904e-05 0.000410215 3.76475e-06 4.21468e-06 0.00310284 8.84138e-05 1.32528e-05 1.32528e-05 3.81646e-05 2.09522e-05 0.00439847 3.156e-05 4.32387e-06 9.11938e-06 0.000110922 0.000857904 4.64493e-06 1.4406e-05 3.15261e-05 4.21468e-06 0.00202135 7.76673e-05 0.000115922 8.3838e-05 0.00035504 5.74138e-06 0.000349016 0.000251962 1.32528e-05 0.000115922 1.4406e-05 3.76475e-06 0.000110922 0.000115922 6.33494e-06 1.4406e-05 0.0019189 0.00576492 1.32528e-05 8.3838e-05 0.00035504 5.74138e-06 0.00127682 5.3719e-06 4.32387e-06 0.000858618 3.81646e-05 9.11938e-06 
</DataArray>
<DataArray type="Float64" Name="cell variable 7" format="ascii">
0.225806 0.264653 0.176526 0.0863829 0.262734 0.109939 0.214434 0.109939 0.15552 0.285858 0.0738515 0.24144 0.142821 0.091923 0.203114 0.174715 0.203114 0.233945 0.203114 0.203114 0.214434 0.10127 0.2268 0.2268 0.340125 0.233945 0.142859 0.230311 0.233945 0.262734 0.142859 0.185875 0.103782 0.185875 0.262734 0.233945 0.311423 0.184332 0.172124 0.185875 0.288948 0.329428 0.129973 0.115625 0.185875 0.0813708 0.0788486 0.264653 0.225806 0.176526 0.129973 0.139181 0.230311 0.142859 0.172124 0.259721 0.0886341 0.15552 0.0788486 0.116913 0.203114 0.162493 0.091923 0.0863829 0.15552 0.214434 0.0779382 0.129973 0.227704 0.288948 0.184332 0.230311 0.255368 0.214434 0.225806 0.306453 0.174715 0.227704 0.255368 0.0788486 0.259721 0.162493 0.233945 0.142821 0.255368 0.116913 0.091923 0.0813708 0.0738515 0.306453 0.290041 0.162493 0.311423 0.360012 0.103782 0.103782 0.148901 0.115625 0.230311 0.214434 0.230311 0.091923 0.115625 0.233945 0.184332 0.115625 0.24144 0.214434 0.264653 0.116913 0.214434 0.142821 0.148901 0.172124 0.24144 0.172124 0.214434 0.176526 0.0788486 0.142859 0.176526 0.2268 0.285858 0.329428 0.290041 0.172124 0.347352 0.203114 0.10127 0.142821 0.225806 0.148901 0.142859 0.290041 0.174715 0.0886341 0.227704 0.142859 0.091923 0.142859 0.142821 0.0989326 0.0779382 0.337987 0.214434 0.103782 0.174715 0.10127 0.103782 0.129973 0.2268 0.103782 0.360012 0.115625 0.0989326 0.340125 0.116913 0.142821 0.214434 0.0886341 0.0863829 0.109939 0.129973 0.0886341 0.2268 0.148901 0.176526 0.264653 0.0788486 0.311423 0.203114 0.115625 0.203114 0.306453 0.129973 0.360012 0.0989326 0.0989326 0.329428 0.306453 0.0779382 0.0989326 0.0989326 0.176526 0.259721 0.262734 0.176526 0.0788486 0.360012 0.129973 0.214434 0.116913 0.0863829 0.285858 0.227704 0.142859 0.109939 0.148901 0.139181 0.115625 0.142821 0.118245 0.15552 0.176526 0.184332 0.337987 0.255368 0.162493 0.148901 0.259721 0.225806 0.172124 0.184332 0.233945 0.176526 0.311423 0.357275 0.172124 0.203114 0.0863829 0.091923 0.357275 0.264653 0.255368 0.329428 0.139181 0.2268 0.340125 0.262734 0.148901 0.357275 0.118245 0.129973 0.0813708 0.091923 0.115625 0.0813708 0.24144 0.255368 0.184332 0.10127 0.109939 0.329428 0.0788486 0.115625 0.285858 0.118245 0.15552 0.311423 0.0863829 0.0813708 0.203114 0.185875 0.0738515 0.357275 0.148901 0.0813708 0.255368 0.259721 0.262734 0.0788486 0.225806 0.24144 0.255368 0.311423 0.184332 0.0738515 0.116913 0.262734 0.115625 0.0788486 0.142859 0.184332 0.214434 0.230311 0.184332 0.311423 0.184332 0.109939 0.306453 0.15552 0.15552 0.139181 0.116913 0.142859 0.184332 0.203114 0.185875 0.227704 0.0989326 0.116913 0.0738515 0.109939 0.306453 0.259721 0.139181 0.174715 0.0779382 0.174715 0.172124 0.116913 0.142821 0.0779382 0.334908 0.511928 0.129973 0.337987 0.174715 0.264653 0.118245 0.184332 0.214434 0.0779382 0.0863829 0.116913 0.285858 0.0813708 0.0788486 0.103782 0.139181 0.184332 0.347352 0.2268 0.285858 0.340125 0.357275 0.214434 0.0738515 0.203114 0.337987 0.091923 0.174715 0.162493 0.285858 0.185875 0.24144 0.118245 0.233945 0.311423 0.225806 0.214434 0.184332 0.0989326 0.290041 0.10127 0.0886341 0.139181 0.129973 0.10127 0.264653 0.176526 0.203114 0.115625 0.259721 0.285858 0.142859 0.225806 0.139181 0.233945 0.0738515 0.0779382 0.329428 0.176526 0.115625 0.115625 0.148901 0.129973 0.360012 0.142859 0.0788486 0.103782 0.184332 0.264653 0.0813708 0.118245 0.142821 0.0779382 0.288948 0.172124 0.185875 0.174715 0.2268 0.0886341 0.225806 0.214434 0.115625 0.185875 0.118245 0.0738515 0.184332 0.185875 0.091923 0.118245 0.306453 0.334908 0.115625 0.174715 0.2268 0.0886341 0.285858 0.0863829 0.0788486 0.259721 0.148901 0.103782 
</DataArray>
<DataArray type="Float64" Name="cell variable 8" format="ascii">