<VTKFile type="UnstructuredGrid" version="0.1">
<UnstructuredGrid>
<Piece  NumberOfPoints="    3357" NumberOfCells="    2467">
<Points>
<DataArray type="Float64" NumberOfComponents="3" format="ascii">
10.4509 27.3753 0 
13.0336 11.3148 0 
-14.7107 -17.3557 0 
27.8772 -44.1432 0 
-57.6744 8.96656 0 
-17.661 0.9041 0 
-42.9041 -34.282 0 
45.8492 19.0376 0 
43.5354 -2.98871 0 
2.74911 -40.7481 0 
21.3407 -1.66138 0 
-4.52599 -52.6231 0 
0.121634 -48.8492 0 
42.1862 -38.1466 0 
22.4682 21.9955 0 
15.45 -60.1106 0 
-33.0616 28.5219 0 
-10.1289 27.5868 0 
-38.9775 19.8804 0 
49.4906 -28.9751 0 
-5.93418 43.2999 0 
29.5927 12.9305 0 
42.6359 0.331933 0 
9.30043 1.08192 0 
2.16649 -48.3712 0 
-18.5508 17.9627 0 
-39.9342 -48.7149 0 
-22.1849 47.9034 0 
13.0081 -15.2832 0 
-1.0383 -34.4036 0 
2.62878 -29.0479 0 
-25.8986 -29.9215 0 
-45.0589 -18.971 0 
-45.3113 -3.1151 0 
-44.496 -23.1257 0 
-10.5624 -21.6507 0 
-20.7475 54.746 0 
49.4968 23.5781 0 
-8.32785 6.91709 0 
-32.7646 4.55228 0 
-25.1932 -30.7105 0 
-11.214 -32.2294 0 
-0.67311 -16.1194 0 
-18.8468 -57.6062 0 
49.5198 14.3053 0 
-8.63253 36.0171 0 
-19.0656 -0.890745 0 
44.0338 8.2244 0 
8.21109 32.9903 0 
47.5778 38.7109 0 
-39.655 -49.187 0 
-1.53055 -48.7706 0 
-39.4776 -14.4931 0 
30.5771 4.18239 0 
-39.8011 -37.5941 0 
5.64528 -52.3191 0 
26.3681 29.1419 0 
34.2936 40.7729 0 
20.3403 -42.0639 0 
9.49096 -46.7358 0 
-30.4965 34.6696 0 
-55.5026 0.951326 0 
-1.03048 -48.6613 0 
60.8607 9.93991 0 
-17.6578 38.2072 0 
-20.9392 -52.1654 0 
37.2432 48.0043 0 
36.5364 -27.9854 0 
37.4207 -27.6913 0 
-28.3452 18.9008 0 
22.4947 -6.23378 0 
-53.7989 -12.5033 0 
4.3716 -41.7592 0 
55.5248 -19.7402 0 
27.3422 4.4769 0 
29.5054 -4.7598 0 
38.5221 -43.1987 0 
-27.9596 19.7486 0 
-6.219 -32.5736 0 
54.5354 18.3611 0 
-54.0373 0.0255297 0 
15.3071 23.7886 0 
-16.2002 -16.2361 0 
-12.5403 59.0615 0 
-50.9516 25.0124 0 
2.1159 41.275 0 
48.7136 16.1547 0 
-41.6367 17.7043 0 
-48.6865 32.904 0 
-58.7533 -15.4643 0 
-32.7629 -19.1691 0 
-24.4685 -50.0428 0 
36.2723 9.75796 0 
11.7239 19.6478 0 
-35.4732 -15.4014 0 
37.1815 33.8785 0 
48.4497 -3.58746 0 
-51.4079 -2.11523 0 
35.8103 -50.0027 0 
18.1721 -56.0177 0 
11.6036 -46.8 0 
52.7195 -8.59397 0 
-23.1593 37.8548 0 
-23.5348 -7.3752 0 
52.1177 -5.96727 0 
-22.1482 -0.685262 0 
24.0408 24.1913 0 
50.3357 -4.38482 0 
27.0469 -49.0009 0 
-30.1607 25.0271 0 
-37.8301 -31.4773 0 
-27.8513 19.8882 0 
44.9282 34.0145 0 
44.3493 -13.0199 0 
26.6272 28.0906 0 
-0.419832 -22.682 0 
-29.4509 34.8707 0 
12.0349 -40.3833 0 
-8.88139 -36.9298 0 
61.4533 -8.39018 0 
50.2053 11.211 0 
11.6474 -1.0664 0 
-38.9057 20.7227 0 
-1.33862 19.2968 0 
38.8444 -46.5532 0 
-16.1097 45.8183 0 
-25.9638 -34.712 0 
28.7784 16.8749 0 
7.99059 9.88742 0 
-6.03772 52.2286 0 
-28.0328 -50.5581 0 
-36.3107 -2.27213 0 
17.8024 7.17615 0 
-19.7326 -30.1546 0 
-16.6342 46.9268 0 
-34.2749 43.9133 0 
53.9494 -10.0216 0 
27.9765 -39.4409 0 
7.81167 14.1774 0 
5.89593 -4.44631 0 
27.3044 43.9517 0 
-47.6761 10.342 0 
18.7093 36.7019 0 
-9.86227 27.3811 0 
-52.937 11.2593 0 
4.36476 52.3295 0 
-44.7993 21.6763 0 
37.434 -43.0656 0 
-41.4849 -3.5522 0 
-0.295526 40.5974 0 
28.4426 32.9862 0 
49.1125 -11.4046 0 
-44.184 -4.08892 0 
17.3892 -26.0899 0 
-36.5677 -31.2924 0 
-51.111 -25.5221 0 
14.2142 30.826 0 
31.9983 19.9255 0 
-39.8996 33.8685 0 
12.907 58.5142 0 
-36.7294 -6.37341 0 
-20.4964 -23.867 0 
-51.9218 -29.0566 0 
22.965 -50.1629 0 
57.5789 16.2627 0 
36.0892 -11.0753 0 
31.0996 21.5632 0 
28.7005 -29.6717 0 
2.50652 29.1475 0 
-28.3613 -41.7654 0 
43.5977 11.8586 0 
-43.6617 27.0667 0 
-55.9917 23.8976 0 
-20.9463 -42.8804 0 
9.97919 -12.7753 0 
-15.3235 31.8348 0 
-23.2507 41.9712 0 
-45.0414 4.86811 0 
37.9997 47.3422 0 
23.7504 -14.0519 0 
-43.7878 39.1459 0 
0.867526 39.2181 0 
-45.7023 -33.7925 0 
-3.01611 6.82619 0 
-18.6522 31.4175 0 
36.4876 -35.2101 0 
-59.3547 15.1268 0 
17.8715 48.9694 0 
17.5388 -16.8632 0 
-45.7197 -21.6766 0 
3.99441 36.5156 0 
25.0849 9.56358 0 
-9.2961 -27.5619 0 
3.97282 47.1865 0 
-44.412 8.64329 0 
50.336 -29.5233 0 
9.89966 20.0114 0 
-31.5138 15.3933 0 
5.89635 7.68372 0 
40.3871 -19.2626 0 
10.4432 37.1874 0 
49.0232 -4.3228 0 
-23.3295 18.8619 0 
18.2832 49.9926 0 
-21.3244 -52.1858 0 
-2.52261 23.7853 0 
41.5872 -41.1151 0 
35.7532 -28.1531 0 
-3.26715 -8.30356 0 
0.217293 -22.7081 0 
-8.28894 -37.571 0 
-31.6331 -52.5181 0 
-15.8504 44.7734 0 
47.3456 -26.5041 0 
10.7949 40.4929 0 
47.6237 -37.6098 0 
-11.1426 51.9916 0 
-9.76922 30.1852 0 
60.9677 -2.67054 0 
-7.77593 42.3137 0 
-22.6908 31.7169 0 
-44.2659 5.68105 0 
38.1758 3.93755 0 
47.6542 31.7996 0 
19.7151 40.0202 0 
29.452 -51.3907 0 
47.1852 39.1297 0 
45.9214 -30.9576 0 
-51.1309 -16.1237 0 
-7.7431 37.4462 0 
-3.65307 33.0863 0 
26.7029 -3.80204 0 
-22.7369 5.98665 0 
-45.637 30.0355 0 
-42.3115 -23.5056 0 
-30.8638 -45.9282 0 
22.5381 39.4937 0 
-13.2865 11.1703 0 
-39.2988 19.0234 0 
-34.3475 -27.154 0 
-19.8369 -27.5867 0 
-2.10032 34.5557 0 
-31.0693 -11.2447 0 
11.7374 -1.74309 0 
36.3316 -18.1635 0 
-51.432 24.5748 0 
3.007 20.364 0 
-8.93505 -34.9221 0 
-15.7176 30.0687 0 
-36.6889 36.2108 0 
-38.0529 40.4889 0 
28.7769 -33.1861 0 
12.2554 12.0351 0 
44.4308 -17.2645 0 
11.8084 -33.8593 0 
-14.6625 -37.996 0 
-49.041 -9.76272 0 
16.9941 -49.7446 0 
43.0446 -2.70675 0 
-23.841 -23.2388 0 
-33.1465 -51.4083 0 
9.52325 -12.2531 0 
-42.72 27.0722 0 
35.7578 -1.97526 0 
5.92386 -26.704 0 
25.5224 -16.7561 0 
-13.9509 15.7123 0 
-22.0728 -33.9877 0 
-38.994 41.8899 0 
44.2728 -23.5475 0 
-21.3794 43.8479 0 
-27.9811 -42.8581 0 
-23.921 -3.58662 0 
-36.8862 -33.5238 0 
24.4593 15.3855 0 
-0.00902337 -29.375 0 
-25.9136 -36.0599 0 
-40.6551 33.7254 0 
-34.9757 45.5996 0 
-9.63207 -7.83698 0 
16.2961 59.2691 0 
-57.9995 1.07028 0 
-8.14588 -27.4396 0 
29.2499 -7.77083 0 
14.261 -9.90427 0 
-56.6239 0.652978 0 
39.5341 -2.74167 0 
13.6345 52.7477 0 
22.6429 -55.1738 0 
-22.9444 15.6526 0 
-49.86 -22.1091 0 
-7.07776 -40.197 0 
-5.2195 27.7716 0 
-27.8148 25.6253 0 
-44.8853 8.78748 0 
5.93763 5.6412 0 
-18.0795 -42.9487 0 
-0.1244 39.8595 0 
17.9766 58.9689 0 
-8.40871 -45.2858 0 
-12.579 11.5911 0 
10.9326 31.0333 0 
-11.2461 -45.9165 0 
34.0862 15.5297 0 
4.74688 54.6459 0 
30.123 -25.4117 0 
11.3186 48.8442 0 
2.40575 20.9043 0 
14.2399 37.1958 0 
34.0396 39.1613 0 
2.8334 56.8355 0 
-13.0319 53.9745 0 
-14.7302 -51.1519 0 
19.3786 -42.1019 0 
22.4059 -7.90553 0 
-37.076 6.63801 0 
-24.8203 19.8269 0 
-9.10373 -20.3096 0 
44.9422 -14.8619 0 
-12.2192 -53.6088 0 
36.4964 -34.1644 0 
44.7315 -10.0767 0 
-5.06532 61.9317 0 
35.0333 2.93034 0 
7.81876 -55.026 0 
-0.847935 -4.51878 0 
-14.9165 -12.5701 0 
10.4501 -33.3836 0 
27.2857 -45.1733 0 
-38.0007 1.48713 0 
25.4845 -17.7237 0 
-29.9892 -2.61015 0 
2.66102 -13.6172 0 
-36.7429 -38.9973 0 
27.7786 39.7075 0 
27.401 -28.2896 0 
-40.0219 11.5098 0 
-27.5455 41.8203 0 
-0.0990785 48.4228 0 
-29.4484 24.1062 0 
-7.05401 42.8473 0 
-44.8528 -41.6762 0 
25.5137 -17.4268 0 
1.86551 28.8739 0 
-26.8518 -58.6157 0 
17.6159 58.9838 0 
-2.9493 26.2915 0 
51.7013 -22.3774 0 
-12.6507 8.65354 0 
39.9527 12.353 0 
37.9366 5.17304 0 
-20.0569 -52.619 0 
-21.8258 8.90262 0 
-3.91316 -8.47345 0 
11.2764 -16.5329 0 
-28.7844 49.5981 0 
52.3909 25.8021 0 
-0.546568 40.7212 0 
56.0275 20.0481 0 
20.3585 -45.119 0 
0.0581749 -57.9956 0 
2.93365 20.4459 0 
-57.8539 -9.99797 0 
-28.0932 8.59957 0 
18.6637 -19.5834 0 
4.46602 24.6921 0 
-11.588 52.1867 0 
-26.0592 -49.7885 0 
53.5057 -5.42059 0 
1.09393 -0.851629 0 
-3.18621 -27.6383 0 
26.6001 7.08076 0 
-20.7329 -42.9233 0 
18.614 44.4026 0 
5.35884 -27.8518 0 
-29.2775 -34.3559 0 
32.0802 -33.6652 0 
0.531765 -48.9693 0 
-15.1977 17.3635 0 
4.42107 -8.12867 0 
39.8858 40.0265 0 
-36.9251 36.228 0 
18.2161 12.4958 0 
16.5295 8.53429 0 
10.9865 -11.9608 0 
-39.696 23.597 0 
-14.6811 5.65344 0 
54.6854 -10.1784 0 
-13.2097 45.4553 0 
-40.0017 47.9646 0 
-36.9235 17.2337 0 
-6.69 5.31847 0 
12.229 41.7967 0 
-24.7166 -9.38269 0 
24.1835 -12.1761 0 
-52.7602 3.09727 0 
-8.92631 6.97882 0 
-44.1336 -27.9722 0 
-16.379 44.2604 0 
-25.9291 -35.8789 0 
50.5639 -36.7631 0 
-24.1332 -33.2137 0 
14.0585 49.4176 0 
44.4273 -39.228 0 
3.30181 -41.9152 0 
-17.3404 -58.5951 0 
35.9 -43.9563 0 
-32.9642 15.3601 0 
-7.48408 -54.6349 0 
15.9863 28.358 0 
-51.8409 16.2257 0 
47.9621 34.4341 0 
40.305 26.2232 0 
-36.2106 27.5031 0 
-56.3211 23.3079 0 
-21.0049 26.8323 0 
-7.61919 0.308079 0 
0.270525 12.7592 0 
-60.0188 -10.9777 0 
-8.97088 -47.3681 0 
21.4767 -35.0444 0 
27.4865 47.9968 0 
10.0378 3.79253 0 
33.0336 17.8181 0 
-21.9261 49.6316 0 
-3.96918 31.8381 0 
-51.8229 -34.3684 0 
-8.81668 -14.0027 0 
-34.8608 27.9324 0 
10.9045 19.3578 0 
23.9724 -38.6799 0 
45.0676 42.6144 0 
-57.8119 17.619 0 
-13.8795 11.7033 0 
-28.5662 -1.49509 0 
21.0847 -26.8533 0 
-10.561 -1.83237 0 
8.10624 -8.65203 0 
-28.7146 43.7888 0 
56.3107 1.79715 0 
-14.8465 -24.8712 0 
6.80668 -40.9699 0 
10.176 25.7666 0 
58.4617 11.2751 0 
-3.59048 -59.9696 0 
-34.2725 -28.4569 0 
-15.1214 -10.0462 0 
-36.8866 -31.9105 0 
-15.7599 -24.5775 0 
51.0035 25.2492 0 
-51.3242 -21.2028 0 
36.4711 -16.7518 0 
44.3053 1.43717 0 
1.95055 51.0492 0 
34.1939 30.703 0 
26.1361 -28.4949 0 
23.4713 -38.969 0 
18.4094 -26.8575 0 
-7.05072 -53.8381 0 
23.9563 13.8173 0 
-49.5384 -15.1176 0 
-35.6212 -25.9186 0 
44.0395 24.432 0 
-32.1972 41.9626 0 
-58.5083 16.9096 0 
16.9058 -31.3579 0 
19.9039 48.4965 0 
37.487 18.2689 0 
37.0399 34.6036 0 
61.5513 -7.81739 0 
-40.7771 -15.0153 0 
-14.564 53.9275 0 
21.1505 -34.1809 0 
14.5199 18.2652 0 
14.5781 -4.02032 0 
-11.9078 -27.3626 0 
-1.69924 -28.8778 0 
51.2271 -35.6458 0 
20.1266 -22.4562 0 
4.16532 31.1809 0 
18.4352 48.339 0 
-9.25553 -59.0997 0 
17.8523 -26.1728 0 
-14.0388 -7.66231 0 
14.344 49.5459 0 
-10.4732 -7.1202 0 
-17.8777 -58.5429 0 
36.3828 -9.17335 0 
6.97526 -17.7506 0 
-10.8475 -33.202 0 
28.6713 3.42938 0 
-37.0156 -21.7557 0 
-4.14176 43.2962 0 
[...]
<CellData Scalars="wall variable 0">
<DataArray type="Float64" Name="wall length" format="ascii">
2.61648 6.81722 1.33781 1.52539 1.98224 1.68064 1.34709 1.3194 2.7623 3.61555 0.855901 4.44781 1.35848 6.60378 3.08005 6.25838 0.68279 0.767804 4.26239 3.12372 5.76946 3.31637 5.80118 1.73386 3.30209 1.85782 0.530582 0.684442 2.7349 5.16249 5.07436 2.6296 4.06818 3.7885 0.990122 1.04083 2.37972 8.5006 3.63712 0.761077 1.36165 4.20226 3.49858 5.6987 0.597824 2.97272 5.26446 1.51789 2.6296 0.358693 3.56539 0.237799 6.62189 3.33597 2.98737 5.02371 4.3757 0.922475 3.62106 2.52983 0.395159 3.3888 4.67246 0.715202 6.66038 1.28836 0.941918 4.41176 0.928858 5.56093 3.97817 0.550914 4.92881 1.18243 6.85998 0.685388 9.037 2.30867 1.84648 1.0037 9.06744 3.19491 1.48429 4.75708 1.48757 0.823996 2.72859 5.70221 3.93579 6.62953 2.62693 3.67953 2.04708 0.7244 0.565149 8.0292 3.1382 0.306419 4.17016 3.49197 2.36089 7.13678 4.65438 3.66091 0.429243 2.80015 0.545447 4.68946 3.95174 2.19456 7.12671 3.67953 2.46603 1.65868 4.74922 5.08246 2.46603 2.62693 4.63651 1.27597 2.54299 7.70014 2.28982 6.5843 2.69055 0.886879 2.6709 4.1691 1.1727 3.61072 1.5828 3.05838 2.30272 3.22427 5.11427 4.11094 6.30082 5.9827 1.35848 2.96373 2.96775 2.00932 0.615728 4.02118 6.19206 0.695683 8.85799 0.704169 1.5159 3.25606 5.15239 1.02393 7.12671 2.92197 2.40622 3.2715 5.43027 0.892124 8.77459 0.226177 3.52727 7.19846 1.22572 7.78685 0.920561 2.1743 5.64803 1.07358 0.778718 2.92197 2.19456 3.14828 4.70969 5.06321 3.04212 3.01168 1.66291 0.188147 3.4518 5.18145 4.62226 0.468133 4.46773 2.22875 6.68321 2.89867 4.20584 4.26644 3.56361 2.21905 1.95696 5.40773 0.455299 0.509013 2.29172 1.14473 2.44399 2.2008 0.309436 1.21128 0.932579 4.26644 7.07284 2.12708 0.209802 12.0522 3.21364 0.778211 5.81425 2.01578 6.01927 2.74047 4.70969 1.44857 3.09458 7.76923 1.33384 5.65246 2.89867 0.699948 6.30655 6.302 3.77345 3.11261 1.07423 1.87212 4.67274 4.65358 0.886078 9.43513 0.975642 0.570315 1.5828 7.72924 0.84124 2.31697 6.4532 2.18656 1.96694 4.79391 0.996044 6.90063 3.1382 0.990114 0.598448 8.43728 1.95185 3.56361 0.932579 1.98848 2.18656 0.247168 10.5005 5.46018 4.08125 5.02371 0.120729 6.97387 2.71308 2.9704 5.39755 1.52365 5.65536 8.65021 7.52148 1.56531 4.79391 0.730172 7.6201 2.86434 1.56191 3.80195 6.14954 5.39201 3.51458 3.31048 1.06469 2.74912 1.04266 1.80615 2.45863 1.04037 0.74316 2.35558 0.770128 0.237799 4.08125 4.28131 0.864114 1.33781 5.93877 2.40954 4.15608 6.47904 3.03735 5.9498 3.56539 0.680755 2.11857 8.83776 5.08072 8.28803 7.19901 0.502572 2.30636 3.01812 2.45695 2.96744 0.994897 6.46241 7.11764 0.899956 1.04326 3.58586 5.78191 0.32458 1.32358 1.56055 3.85531 0.999779 2.01996 8.77459 1.63655 4.77957 1.3272 0.695683 1.7284 8.29637 4.42407 2.52983 0.379398 3.413 1.88421 1.83898 6.35564 2.95107 1.32982 7.43635 0.767145 4.74239 1.54332 1.06347 1.76619 10.6962 0.769078 6.83582 4.25023 1.34074 2.76419 6.17706 3.13861 0.558087 1.06469 8.07436 2.46873 8.0759 1.04037 1.95344 1.60055 6.14954 1.65868 7.70014 0.180795 1.10669 1.38406 2.24209 2.36089 1.37884 1.97852 0.774936 4.30497 4.57784 1.55514 8.5429 1.48757 0.968967 7.96309 1.05696 4.07395 7.64581 3.02879 9.69151 1.71459 2.75414 9.85149 5.29991 3.33597 2.04147 6.83582 2.61677 1.32259 3.66808 1.46831 3.29855 3.74864 6.5843 0.144769 9.91492 1.11174 4.10191 7.19714 1.79789 3.60551 5.62862 1.51917 0.51209 3.46221 1.69499 1.16051 1.46717 3.64608 2.38096 0.774216 1.24237 1.80624 6.6219 1.76457 7.00851 2.10086 0.584866 6.70423 0.771392 2.04488 5.07436 1.69867 2.15779 1.21286 3.51521 2.50138 1.5159 3.45671 2.11874 3.54026 5.79895 1.29045 4.17269 4.36626 6.36832 1.90458 6.77354 1.73327 5.73496 1.74934 3.25131 1.29497 0.309436 7.7119 1.58457 3.18167 3.07705 2.00849 4.36956 1.5027 4.74787 1.59164 5.08291 1.28878 0.178511 8.57704 0.578423 1.21286 1.81316 0.908011 0.141386 7.37372 2.61677 0.769078 2.42126 1.44931 3.74361 1.59141 7.87693 2.36883 3.74361 2.59987 3.06108 8.0284 0.457639 10.4779 1.80615 1.26964 4.18672 5.70176 1.51634 3.413 9.1729 0.585416 1.38225 5.8322 3.50437 9.85746 2.83194 0.468133 6.54688 0.79794 0.41025 7.76923 2.40871 6.76721 0.886879 1.29455 0.994897 0.755365 11.1111 0.130454 1.54332 5.94164 1.39501 2.17043 0.54897 0.294252 0.699948 2.21905 1.95185 1.37098 0.581257 1.34413 3.9177 4.28264 0.237324 3.03735 0.825754 2.66957 3.32838 1.10669 10.4702 2.06805 5.70221 5.29211 0.852313 2.87872 1.7476 0.411613 3.85129 7.788 0.432319 2.86434 5.63586 0.612333 5.56919 0.668092 6.79875 6.66038 0.731041 0.178511 4.66456 3.72094 0.990114 8.0292 1.21662 8.29637 0.191931 3.07828 6.56665 3.68651 8.5429 0.722446 9.85746 0.434502 6.30655 4.28264 4.89478 0.980949 1.15098 1.58457 2.35432 1.84648 2.68559 2.0414 5.5558 0.53936 8.64144 1.42474 1.95696 6.47911 3.52254 1.42474 5.0346 0.928858 0.670852 4.07461 5.40773 4.3326 0.481718 1.74953 4.67192 0.559023 0.0346709 0.209802 6.79004 2.4702 2.47546 2.35047 0.543811 9.08167 3.89947 1.08043 5.78191 1.49526 3.54026 4.18435 0.562759 0.920561 2.96573 2.04268 6.17706 0.439466 6.34987 4.20096 7.11764 1.08043 7.78685 0.823996 7.64581 0.728309 3.97817 1.56869 5.01565 0.57858 5.58493 2.11883 4.02619 6.18164 2.11866 5.44314 0.505166 4.54658 2.08295 0.707285 0.656989 3.00583 0.996848 1.36776 5.91437 0.202548 8.95676 4.22698 0.734355 5.58493 1.93869 6.64298 3.12972 6.44152 2.18646 1.46237 3.33128 1.8101 0.888211 8.31496 2.62613 7.14124 2.4933 3.66443 6.60378 5.9827 0.687152 0.8599 2.87069 6.60844 0.128896 3.31873 0.457639 3.53252 1.34287 7.14124 4.38551 5.96975 5.94164 4.74239 9.23654 5.00528 0.244497 2.13576 0.943736 7.92463 5.86182 0.656989 9.95581 0.125825 3.05838 0.570315 3.63744 5.22751 1.33584 1.84934 6.76693 0.470432 1.81619 6.44152 1.3272 2.01598 0.886078 6.34133 8.85799 1.8101 1.34287 3.90457 4.1691 7.36529 0.825754 8.83776 4.42112 0.995778 2.11459 4.90326 0.236262 0.144769 3.47564 6.28388 1.25437 0.133176 9.92584 1.19738 10.1185 0.70454 4.07665 4.27254 0.226177 2.01996 0.42682 3.86946 3.80785 0.162999 1.46152 1.03199 0.767804 6.90065 2.59548 7.87825 0.707163 2.40252 6.68036 2.23983 4.55853 1.68886 0.771392 0.0925243 5.69013 3.8283 7.59051 5.12719 0.308274 4.36596 3.85307 4.09042 6.01927 0.264962 1.53819 2.99451 1.3452 0.813622 5.15173 3.63744 0.975642 3.78467 1.63655 1.21662 2.03288 5.54667 3.74829 1.10329 1.62977 5.72659 2.00918 8.25598 0.162999 3.45668 2.13891 3.27005 0.906699 0.359165 4.92591 6.93989 1.70616 10.3698 1.39501 9.23654 0.767145 0.660949 0.51209 0.766265 0.853788 2.56099 6.59987 4.44125 1.60856 0.594171 1.01344 2.61648 0.511204 7.73868 3.39654 4.94874 5.17311 4.18435 2.11874 0.40082 7.19846 3.06098 4.28272 6.47904 0.799622 7.05998 2.85931 3.73379 3.21364 4.09042 3.49197 5.93743 1.68064 2.99008 2.15793 1.05207 0.509013 8.21682 3.28412 0.791532 5.56481 5.95771 1.32259 7.87693 2.65974 2.24384 1.16051 5.36059 0.361465 2.25945 3.06098 3.52727 4.27254 7.19035 4.81713 5.29211 2.72859 0.57858 7.73131 0.834311 6.68321 0.943579 3.85531 4.36725 0.585416 0.523382 4.12677 9.72272 0.50175 9.06744 2.43572 5.27713 0.659278 3.92007 3.72639 2.35047 3.18381 6.65022 3.30569 2.96775 2.03699 0.584866 1.92381 0.359165 0.271581 3.02879 0.686498 3.40946 1.02801 0.481718 6.39537 4.20226 1.14462 1.07423 6.40673 5.68483 2.69859 4.70708 3.62879 0.994352 4.67192 3.97682 0.990417 5.95841 1.52539 0.864114 4.28272 2.25945 0.67238 4.34194 4.43378 6.93989 0.732314 2.13576 0.0844425 5.56093 5.0346 8.64144 2.41397 7.66621 1.69499 2.95732 0.791532 1.29863 3.61465 0.505166 3.42061 2.85931 0.512476 5.43027 3.78205 2.1847 4.4235 6.47911 1.21128 2.00849 0.738276 3.60649 6.53696 2.21397 5.40487 7.20896 2.33289 5.65536 2.87595 2.7349 4.20779 2.85994 6.94187 0.953573 4.02118 3.17615 1.71459 1.44857 3.14828 3.95174 0.820422 1.68258 4.72258 3.86795 0.729964 3.8269 3.89789 4.15842 0.74316 8.0759 1.1882 2.96373 4.44781 5.16343 6.78976 0.755365 3.49858 5.68483 0.728481 1.76878 3.66808 2.28982 1.35894 1.10477 5.56481 2.95732 3.46221 0.660949 7.43635 5.56919 0.715202 0.0844425 0.53936 1.64875 1.73386 6.04697 0.660721 4.42123 0.358693 8.5006 2.77593 1.11348 4.57784 0.47854 3.38346 0.680755 3.46885 8.10957 1.21727 2.40252 6.44607 0.853788 1.45534 5.8092 1.07599 2.64578 0.670852 4.41176 0.559467 0.54897 0.551632 6.13772 2.59548 1.21477 2.89428 0.474262 9.93506 7.92463 7.08736 1.35979 3.94242 1.36797 2.35505 2.66957 4.90326 1.33649 3.08005 4.73895 5.09872 1.22006 1.3194 3.66443 7.85392 4.38358 8.07436 3.31048 6.01283 3.05024 4.90631 2.69463 1.34413 2.27808 0.880578 4.3377 2.04708 5.08246 4.04275 2.17705 1.90458 0.988391 0.431291 3.59302 0.452276 4.02619 0.881423 2.9704 4.5345 1.54239 4.04275 4.74922 1.97852 5.47889 6.02386 5.65246 1.39694 7.07284 4.20584 7.7311 1.95344 2.45863 3.67877 3.60551 2.01598 4.77957 3.78467 9.43513 3.07851 2.43572 2.47546 1.9052 7.00851 4.82486 3.8283 2.66306 1.36218 2.30272 0.125825 0.684972 3.85307 4.53138 1.93767 2.68328 2.13218 0.9172 0.264962 2.01578 0.620772 3.07828 3.78174 1.5027 6.90793 2.4702 6.14767 2.97517 3.18381 2.10086 1.9052 3.07851 1.76457 1.68886 3.09855 3.91739 5.27713 2.03699 6.19206 0.953573 2.11681 0.0925243 6.70423 0.47854 4.30497 5.83116 0.280404 8.79812 2.98179 4.49496 1.32358 5.1048 6.36793 0.526654 5.62386 5.91989 0.230825 0.0274894 3.13809 5.99597 3.47103 3.3081 0.852125 3.86946 5.31484 4.2029 3.18717 5.14706 1.16842 2.96573 4.09642 1.62468 7.20896 0.62361 6.02386 4.45646 2.16356 0.912221 0.120729 2.98737 5.29991 0.361465 2.9131 1.11837 8.28803 0.888211 7.36529 2.6709 6.76721 2.30021 0.554175 6.86277 2.44341 3.51027 3.89789 2.86182 0.668092 4.42123 5.54335 1.78714 1.11174 1.49759 0.666568 5.71993 1.43902 4.36346 3.47103 2.03731 8.76261 1.02801 6.36237 0.582948 2.1847 3.67458 2.69859 1.74953 1.04215 7.7537 1.04083 0.800474 1.47273 7.48357 0.259211 7.48782 4.06818 1.51789 4.65477 1.26964 1.04266 0.943736 0.732314 4.92591 1.92381 5.12434 7.08736 3.92007 3.89225 5.4018 3.59823 1.29589 3.94124 0.437641 3.77345 2.87684 0.186697 8.31056 2.06636 2.44399 8.1559 1.06347 0.130454 0.82391 9.72272 4.31574 7.96309 1.73177 6.02641 7.86899 2.14597 2.42126 10.6962 2.52206 6.90065 0.68279 6.14513 2.90015 7.69077 7.21202 3.55798 1.13801 0.0274894 3.36816 6.71834 2.44341 0.814794 2.38176 1.34074 3.06108 9.62329 0.925577 0.7244 0.988391 6.36832 0.724793 0.653412 6.54688 4.62226 0.834311 1.27371 8.29313 5.12434 6.39537 4.3326 0.536423 1.35979 5.8322 4.96178 2.98179 1.38044 1.88421 4.02642 5.42603 5.62192 3.3509 0.594171 0.620772 5.81425 3.74745 3.68674 0.813622 6.56665 2.87684 4.65358 3.73832 1.36776 0.696709 4.90261 0.770605 0.236202 3.74745 0.778211 3.73379 3.42061 5.44314 2.03731 5.31484 0.42682 2.52206 5.08459 1.11948 0.818768 4.89478 3.9177 2.69463 4.20444 4.59263 3.67458 3.60649 4.78528 4.70708 0.707285 2.45961 3.61324 1.14056 3.63905 0.684972 9.95581 0.399871 0.0446438 0.814794 6.86277 1.49251 0.593924 4.63651 6.62953 0.686498 9.85149 3.71673 5.76946 2.04072 2.15323 1.47273 6.43688 0.550914 0.728309 4.07395 0.47413 0.656995 0.70454 2.0423 0.852125 5.756 5.77041 3.45668 3.80785 0.244406 9.20103 6.38043 5.09872 0.900256 2.97591 4.69383 0.60517 5.53633 0.724793 4.36626 1.93767 3.12639 5.66654 2.27808 0.581257 8.37168 4.46534 6.46241 1.29455 2.69055 3.74864 0.294252 9.93506 3.45103 5.18859 4.11094 1.1882 2.40871 3.09458 3.86795 0.793773 7.14623 0.850182 2.30021 0.740499 6.39059 3.13809 1.13801 1.5603 5.54667 1.17754 0.536423 6.79004 2.12708 1.39694 1.33384 0.884816 0.652085 3.94242 3.27005 6.37046 2.67172 1.15366 5.26579 0.795892 4.84118 0.47413 1.05696 4.31574 1.01588 5.6558 2.20134 0.636949 0.730172 1.60055 7.7311 1.79789 7.66621 1.81606 2.09024 7.06442 2.40118 0.74151 9.26926 0.800474 0.990122 4.60084 4.92881 6.43688 0.722984 9.08167 3.04793 7.66673 1.7476 1.51937 9.26926 1.86732 3.93973 3.85129 1.99925 1.95257 3.0588 4.95275 1.33584 3.12972 1.40245 1.74934 2.59987 1.44931 2.14597 2.75292 5.28553 9.62329 7.61553 0.873971 1.69867 5.16249 2.87595 1.52365 0.811377 0.186697 0.770605 3.02317 5.11427 3.60469 4.34194 0.244497 3.21211 2.71558 4.18672 4.65477 5.26446 0.379398 3.62106 5.17329 1.27371 0.523382 9.1729 5.04752 0.128896 1.15887 1.56191 0.432319 0.616807 6.01283 3.51458 0.849421 6.64298 0.21592 3.59823 1.73892 1.46831 1.76878 1.17352 3.66167 4.67246 5.706 2.89597 2.91451 3.41568 6.64908 1.48429 0.899213 2.66588 4.20779 0.684442 0.770128 0.374558 3.36816 4.25023 2.04147 6.62189 0.652085 9.10891 0.395795 5.64803 3.85687 1.36797 6.04697 5.80118 6.0625 7.39367 2.41397 6.96342 1.99925 0.612333 7.23093 2.20134 3.63528 4.65438 1.90191 1.46152 8.25598 4.78528 0.738276 3.07705 0.60512 8.99501 3.62879 3.48103 7.08085 1.8071 7.01901 2.13891 5.77041 1.42109 1.53629 3.02848 6.37046 2.0855 3.3612 3.21211 5.00528 0.535076 4.94874 0.636949 7.23093 5.63586 7.6201 4.40657 2.97591 4.17269 8.12334 4.36596 1.1321 1.81911 1.10709 3.12639 4.53138 3.74151 5.18145 1.82795 0.598448 3.72094 2.29129 1.19808 0.133176 4.8049 2.18943 0.259211 2.74912 0.558087 6.46613 4.15608 6.48502 2.69015 5.1048 0.32458 0.892124 0.40082 0.820629 2.09024 2.73942 5.20203 5.8092 0.492364 8.12334 1.29045 2.17705 1.54239 0.62361 5.40487 0.86009 0.884816 6.302 1.15098 3.55203 9.10891 0.696709 0.996848 6.69451 1.97699 1.81316 2.15779 0.873971 7.57248 1.28836 6.79875 5.71993 4.81156 8.01664 2.78793 3.87093 1.49251 2.86182 3.8269 2.15298 2.87069 0.917355 5.31307 1.92971 5.91989 2.01839 3.04212 3.74151 4.5376 4.5345 2.71308 2.33289 2.66588 4.09642 6.34987 0.539576 1.86732 0.74151 2.28602 0.512093 0.943579 2.22875 7.4565 4.03811 1.04215 2.42292 1.19738 0.999779 0.855707 6.69451 3.00583 0.562352 1.28802 7.21202 1.29497 6.11278 3.20135 0.761077 3.8203 1.63545 2.3156 5.79895 1.49526 3.58586 5.02487 1.90911 0.562352 8.95676 1.84595 2.18646 1.81619 6.31919 0.911994 2.03225 2.15408 3.27033 2.74446 4.20444 4.90631 4.90261 7.57248 7.61553 2.18943 1.76007 1.18243 4.60084 3.7885 7.48782 3.78174 0.191931 1.7284 5.15239 2.48218 4.74787 0.0446438 9.29533 2.75292 7.86899 1.76619 2.38176 0.399871 3.93579 0.925577 5.28553 9.29533 5.82751 2.32107 1.14056 5.84003 2.30636 3.31718 0.536152 10.4702 0.180795 2.54299 8.32579 1.20248 4.46773 2.83194 0.722446 1.55514 1.11348 0.570157 7.4565 1.92971 8.90275 0.908011 1.97699 0.855707 7.69077 0.230825 4.83384 7.88001 3.66091 3.63528 2.00918 1.98848 12.0522 0.0346709 1.97035 8.65021 1.96694 5.36059 6.6219 1.67079 2.52755 2.9131 1.90562 2.54458 2.66306 5.69013 2.11681 6.94187 8.32579 1.27597 0.593924 3.87093 6.5886 1.82121 0.752462 1.8071 4.4448 2.28602 2.40118 6.14715 5.9498 0.237324 0.536152 2.63426 5.70176 2.71558 2.97272 1.59164 2.48218 3.25606 2.50138 2.3156 2.38987 5.18036 1.38225 4.36725 1.56055 4.49496 4.96178 2.45961 2.08295 2.0433 2.87687 2.45695 6.1016 2.6814 3.51521 0.578423 5.16336 2.68229 5.88878 3.89947 0.722984 2.87872 4.11635 0.33619 6.14767 5.17825 0.917355 2.29129 4.66456 7.37372 3.45671 0.704169 6.34133 0.84124 3.84721 2.0855 3.39654 0.374558 2.35558 4.15842 3.51027 6.71834 2.40464 5.16343 0.855901 4.36214 9.037 0.236262 0.0262506 3.18717 1.7383 3.48103 1.97703 1.49759 9.91492 1.14473 8.41005 2.95107 8.1559 2.15298 0.729964 2.46873 3.80195 1.15887 6.60844 0.386145 7.19901 1.11837 2.52755 3.32312 8.10957 3.27033 5.50976 1.0719 3.49057 0.778718 4.27951 4.17016 0.790134 4.59412 0.511204 1.34709 5.93743 2.14033 1.63956 7.59051 0.9172 0.615791 1.18699 9.20103 0.892896 10.2756 1.85782 2.04488 2.6814 5.53409 1.84595 0.202548 6.03083 1.87212 1.14462 1.36165 3.20135 2.22844 1.46237 0.919664 10.1559 1.51823 1.99451 0.932774 8.31496 0.554175 0.850182 1.70681 8.11511 0.20726 3.47564 7.19714 0.660721 7.39367 0.68366 2.00932 3.30569 0.46843 5.54335 1.20248 6.5886 2.78793 3.53252 1.51634 2.63426 0.969653 3.90667 1.11948 0.462706 0.841268 0.434502 3.50437 2.5994 6.20985 3.93973 0.539576 0.439466 2.76419 4.38358 0.616807 7.788 4.97005 6.46613 3.13861 2.04268 1.16842 3.40946 2.15323 4.5735 6.36237 3.61324 6.1016 3.01812 5.84003 5.91437 3.73832 4.67274 6.03083 6.88316 5.72659 5.79611 1.23074 1.24237 9.36376 0.547441 1.21477 2.23983 6.57631 3.23822 6.20985 3.90924 4.3757 3.66167 7.14623 3.78342 3.06653 2.11554 1.2264 0.919664 3.3081 4.36346 0.862364 2.93436 1.37554 1.42109 5.756 1.99451 3.8316 6.77354 1.63545 4.51304 4.31834 8.01664 4.88365 1.82121 3.62847 0.559467 0.941918 2.24209 2.63537 4.26239 1.03199 1.90191 7.13678 3.49057 8.05937 1.0248 0.899956 4.20096 1.22572 0.341184 7.73131 5.01565 1.03427 6.28388 0.20726 2.99008 1.98224 5.95841 6.07828 0.79794 8.29313 5.17329 0.922475 3.90924 2.5994 4.11385 2.9234 0.862364 1.43902 0.339701 3.92947 3.4453 2.0414 1.02712 3.04639 0.615791 2.13218 0.673611 0.247168 6.4532 0.677654 2.18078 1.67858 5.79611 1.62977 4.18693 6.76693 1.01588 6.02641 4.75561 3.19156 2.269 2.40622 5.06321 2.74047 0.41025 2.96744 2.87687 2.10977 0.980949 4.59263 2.74446 4.27951 1.07358 0.395795 3.55203 2.40954 0.755817 5.62192 2.0177 2.3639 1.26715 6.48502 4.31834 6.29949 0.597824 1.04865 4.38551 2.62613 0.932774 5.31307 5.17825 0.141386 8.90275 3.63905 2.32107 4.03016 3.09855 4.55853 4.82486 1.0131 2.80015 1.02393 0.512476 7.05998 9.95262 0.271581 10.3698 1.04771 1.90562 2.85994 9.69151 3.28412 5.85806 1.07599 5.20203 4.98442 1.29863 0.659278 3.91739 4.03016 5.82751 1.52766 3.89225 2.17902 6.97387 0.912221 5.08072 0.386145 3.46885 0.766265 1.51917 3.60469 3.22427 1.36218 2.54458 1.04771 1.70616 4.43378 3.04639 7.78855 2.7623 1.22006 6.38043 1.18699 0.582954 0.280404 8.83061 0.462706 5.08459 2.90015 1.53225 0.995778 1.71024 4.45646 5.47889 1.37884 0.429243 7.88001 1.38518 8.31056 0.811377 5.39755 0.881423 2.11883 0.734355 1.38044 6.36793 2.69015 1.26715 6.63785 0.80529 1.83898 3.23822 2.91451 4.30068 3.92947 6.6865 0.969653 2.42292 7.48357 2.0423 10.1185 0.49126 7.73868 4.59412 4.44001 1.20906 5.4018 1.52766 3.31718 0.502572 4.46534 3.29855 1.73892 4.54658 3.78205 3.2715 2.10977 2.0433 1.7383 4.2029 0.512093 4.4448 7.08085 2.97517 0.33619 1.19694 1.70681 4.10191 1.78714 0.46843 6.65022 1.37098 10.5005 0.673611 2.68328 8.37168 5.83116 0.774936 3.68651 0.841268 8.83061 0.849421 7.97701 3.94124 1.38518 4.22698 2.06805 6.22814 0.431291 4.5376 0.899213 3.19491 0.535076 5.86182 2.35505 3.85687 2.1743 0.562759 5.17311 3.67877 4.28131 5.46018 2.17902 5.62862 0.894761 2.16356 1.71024 4.83384 0.906699 0.795892 1.06649 9.15313 0.67238 7.19035 4.07665 0.656995 4.84118 2.96167 1.56337 3.31873 5.04752 5.39201 10.4779 0.582948 4.5735 2.04072 3.30209 1.64875 3.52254 4.4235 3.74829 1.5603 3.55798 1.28802 0.911994 5.63119 1.02712 2.68559 2.30867 4.36214 3.61555 7.78855 3.61465 4.98442 2.73942 1.81606 1.51937 6.96342 4.37206 3.19156 0.772194 3.41568 0.530582 10.2756 2.90449 0.551632 2.17043 6.59987 7.56896 1.19694 4.11635 0.852313 4.81713 0.341184 8.11511 4.51304 3.8203 3.63712 6.29949 3.84721 7.72924 3.61072 3.02317 3.3612 2.2008 2.06636 4.12677 1.0037 2.35432 7.7119 5.53409 5.88878 1.00655 3.97682 1.56337 2.07229 1.80624 6.57631 6.68036 1.21727 3.32312 1.67079 2.29172 5.95771 1.10477 1.32982 8.41005 1.01344 3.3509 0.755817 5.93877 6.81722 1.04865 5.6987 1.35894 1.1727 3.90457 5.96975 0.411613 7.66673 1.53372 3.59302 6.22814 0.994352 8.99501 2.81889 7.52148 1.97035 0.559023 0.772194 4.75561 1.73177 0.968967 4.75708 6.64908 3.62847 6.14715 7.06442 0.820629 1.45534 1.10329 5.63119 6.31919 0.470432 4.18693 3.18167 5.5558 0.677654 2.31697 1.56531 2.81889 0.60512 1.56869 6.85998 1.76007 4.8049 1.25437 1.03427 2.96167 5.6558 2.269 4.37206 0.892896 2.07229 1.53819 6.90793 4.36956 7.20724 2.2908 1.33649 2.11459 1.53225 6.14513 6.25838 0.21592 1.93869 6.18164 0.452276 1.53372 3.04793 0.543811 3.72639 1.29589 0.565149 1.05207 3.41738 5.16336 8.57704 0.731041 6.13772 2.90449 3.01365 7.87825 4.07461 2.64578 5.85806 8.21682 0.455299 0.339701 8.76261 0.818768 3.90667 6.6865 3.71673 2.75414 3.17615 0.615728 0.68366 6.0625 3.31637 0.0262506 9.92584 1.19808 4.97005 5.14706 3.68674 0.236202 2.11866 5.22751 5.15173 6.78976 2.40464 0.685388 0.50175 0.82391 11.1111 3.25131 1.40245 3.33128 2.22844 6.11278 4.81156 0.666568 1.97703 7.01901 0.752462 4.88365 1.17352 0.728481 6.40673 3.11261 0.437641 7.97701 3.01365 7.56896 2.56099 6.44607 0.707163 3.38346 8.79812 0.582954 4.42112 2.11857 3.32838 4.73895 3.12372 2.63537 1.38406 2.15793 6.07828 