<VTKFile type="UnstructuredGrid" version="0.1">
<UnstructuredGrid>
<Piece  NumberOfPoints="     100" NumberOfCells="      19">
<Points>
<DataArray type="Float64" NumberOfComponents="3" format="ascii">
-1.0812 -0.92092 0.0
-0.649446 -0.936323 0.0
-0.609302 -0.0311352 0.0
-1.07361 0.00685292 0.0
-1.1484 -0.0827643 0.0
-1.13338 -0.853512 0.0
0.0158264 -1.02745 0.0
0.0667054 -1.72569 0.0
0.985451 -1.72676 0.0
1.0616 -0.923612 0.0
0.564095 -0.938681 0.0
0.0799335 -0.955764 0.0
0.0159274 0.948589 0.0
-0.468444 0.931915 0.0
-0.476894 0.0706084 0.0
-0.0823733 0.0391627 0.0
0.11335 0.22311 0.0
0.152167 1.02518 0.0
0.0999867 0.960602 0.0
0.197409 0.235123 0.0
0.593922 0.185983 0.0
1.07108 0.172911 0.0
1.16064 0.882334 0.0
1.09488 0.996545 0.0
1.21154 -0.856298 0.0
1.15777 -0.920039 0.0
1.08161 -1.72318 0.0
1.83604 -1.64748 0.0
1.96355 -0.958416 0.0
-1.13744 0.0965408 0.0
-1.16095 0.833476 0.0
-1.89742 0.86448 0.0
-1.8872 0.0371125 0.0
-1.21224 0.00692356 0.0
-1.20086 -0.854933 0.0
-1.21588 -0.0841846 0.0
-1.89085 -0.0539957 0.0
-1.90532 -0.89766 0.0
1.96494 0.0757367 0.0
1.9837 0.856049 0.0
1.25612 0.867293 0.0
1.16656 0.157871 0.0
1.22866 0.074648 0.0
0.054249 -0.859432 0.0
0.53841 -0.842349 0.0
0.558285 0.0883891 0.0
0.161772 0.137529 0.0
-0.0339508 -0.0464176 0.0
-1.04769 -1.01287 0.0
-0.999769 -1.73923 0.0
-0.0417681 -1.73124 0.0
-0.0926471 -1.03299 0.0
-0.615933 -1.02828 0.0
-0.0124155 1.03592 0.0
0.0397645 1.10049 0.0
-0.00338363 1.72465 0.0
-0.957156 1.72913 0.0
-1.00808 0.991026 0.0
-0.496787 1.01924 0.0
0.107872 1.72985 0.0
0.151021 1.10569 0.0
1.09374 1.07706 0.0
1.12154 1.74739 0.0
1.23022 -0.0135456 0.0
1.22237 -0.76918 0.0
1.97437 -0.871297 0.0
1.9665 -0.0124569 0.0
-1.15344 0.920517 0.0
-1.10394 0.984923 0.0
-1.05301 1.72302 0.0
-1.76315 1.65383 0.0
-1.8899 0.951521 0.0
1.98024 0.941132 0.0
1.8526 1.67234 0.0
1.21472 1.73692 0.0
1.18691 1.06659 0.0
1.25266 0.952376 0.0
-1.14003 -1.00716 0.0
-1.19221 -0.939752 0.0
-1.89667 -0.98248 0.0
-1.78648 -1.66115 0.0
-1.09211 -1.73352 0.0
0.598167 -0.844185 0.0
1.09568 -0.829117 0.0
1.14945 -0.765375 0.0
1.1573 -0.00974126 0.0
1.0952 0.0734816 0.0
0.618042 0.0865527 0.0
-0.592191 -0.941301 0.0
-0.068905 -0.946016 0.0
-0.00479799 -0.874335 0.0
-0.0929977 -0.0613208 0.0
-0.487519 -0.029875 0.0
-0.552047 -0.0361133 0.0
-0.528005 0.932843 0.0
-1.0393 0.904627 0.0
-1.0888 0.840221 0.0
-1.06529 0.103286 0.0
-0.600984 0.065298 0.0
-0.536456 0.0715363 0.0
</DataArray>
</Points>
<Cells>
<DataArray type="Int32" Name="connectivity" format="ascii">
0 1 2 3 4 5 
6 7 8 9 10 11 
12 13 14 15 16 
17 18 19 20 21 22 23 
24 25 26 27 28 
29 30 31 32 33 
34 35 36 37 
38 39 40 41 42 
43 44 45 46 47 
48 49 50 51 52 
53 54 55 56 57 58 
59 60 61 62 
63 64 65 66 
67 68 69 70 71 
72 73 74 75 76 
77 78 79 80 81 
82 83 84 85 86 87 
88 89 90 91 92 93 
94 95 96 97 98 99 
</DataArray>
<DataArray type="Int32" Name="offsets" format="ascii">
6 12 17 24 29 34 38 43 48 53 59 63 67 72 77 82 88 94 100 
</DataArray>
<DataArray type="UInt8" Name="types" format="ascii">
7 7 7 7 7 7 7 7 7 7 7 7 7 7 7 7 7 7 7 
</DataArray>
</Cells>
<CellData Scalars="cell variable 4" Vectors="cell vector">
<DataArray type="Float64" NumberOfComponents="3" Name="cell vector" format="ascii">
0 1 1
0 1 1
0 1 1
0 1 1
0 1 1
0 1 1
0 1 1
0 1 1
0 1 1
0 1 1
0 1 1
0 1 1
0 1 1
0 1 1
0 1 1
0 1 1
0 1 1
0 1 1
0 1 1
</DataArray>
<DataArray type="Float64" Name="cell vector length" format="ascii">
0.0336938 0.0649171 0.0318698 0.0573502 0.067851 0.06264 0.0599332 0.0626166 0.0337577 0.062235 0.0617085 0.0578257 0.0624139 0.0624141 0.0600748 0.0608911 0.0331929 0.0333746 0.0312398 
</DataArray>
<DataArray type="Float64" Name="cell variable 4" format="ascii">
0 0 0 0 0 0 0 0 0 0 0 0 0 0 0 0 0 0 0 
</DataArray>
<DataArray type="Float64" Name="cell variable 5" format="ascii">
0 0 0 0 0 0 0 0 0 0 0 0 0 0 0 0 0 0 0 
</DataArray>
<DataArray type="Float64" Name="cell variable 6" format="ascii">
0 0 0 0 0 0 0 0 0 0 0 0 0 0 0 0 0 0 0 
</DataArray>
<DataArray type="Float64" Name="cell variable 7" format="ascii">
0 0 0 0 0 0 0 0 0 0 0 0 0 0 0 0 0 0 0 
</DataArray>
<DataArray type="Float64" Name="cell variable 8" format="ascii">
0 0 0 0 0 0 0 0 0 0 0 0 0 0 0 0 0 0 0 
</DataArray>
</CellData>
</Piece>
</UnstructuredGrid>
</VTKFile>
