<VTKFile type="UnstructuredGrid" version="0.1">
<UnstructuredGrid>
<Piece  NumberOfPoints="     328" NumberOfCells="     238">
<Points>
<DataArray type="Float64" NumberOfComponents="3" format="ascii">
-2.82955 -2.57992 0 
2.81901 -2.56914 0 
-2.78956 2.482 0 
2.82743 2.51451 0 
-0.0426313 -2.73581 0 
0.0433324 2.63566 0 
-0.190287 -0.087308 0 
-3.04793 -0.0638621 0 
0.209676 0.285475 0 
3.07824 0.0187881 0 
1.63924 -2.70673 0 
1.97473 0.00239938 0 
-1.90067 0.0512836 0 
-1.68525 2.60749 0 
-2.04203 -0.135161 0 
-1.7587 -2.70744 0 
1.83807 2.62712 0 
1.85591 0.180664 0 
-0.000918711 -1.54712 0 
1.81237 -1.50968 0 
-1.88071 -1.63338 0 
-0.150745 -1.6777 0 
0.010189 1.58978 0 
-1.81589 1.51749 0 
0.140735 1.69829 0 
1.83845 1.64938 0 
1.92272 -1.38712 0 
3.03216 -1.49602 0 
-1.91995 1.39729 0 
-3.00527 1.39902 0 
3.05506 1.39551 0 
1.9922 1.45411 0 
-1.99444 -1.51471 0 
-3.02258 -1.53813 0 
0.92155 -1.49667 0 
0.973441 0.15389 0 
-1.1121 -1.60399 0 
-1.05805 -0.0498714 0 
-0.907349 1.52949 0 
-0.944752 0.0280202 0 
1.05735 0.213013 0 
1.05258 1.6544 0 
0.839134 -1.55539 0 
0.853688 -2.76247 0 
-0.825041 1.58385 0 
-0.874366 2.66856 0 
-0.986155 -2.77473 0 
-0.980789 -1.6864 0 
0.988784 2.68904 0 
0.97079 1.70547 0 
-1.99614 0.68109 0 
-3.09376 0.650641 0 
3.1339 0.675871 0 
2.01351 0.764971 0 
3.11403 -0.730037 0 
2.00269 -0.73007 0 
-0.0589971 -0.692276 0 
0.935562 -0.640492 0 
1.86275 -2.01125 0 
2.98926 -2.16562 0 
1.97461 -0.661278 0 
0.98079 -0.719921 0 
-2.0751 -0.831341 0 
-3.09884 -0.82409 0 
0.0854474 0.817318 0 
-0.914031 0.753104 0 
-0.113305 -0.87429 0 
-1.07431 -0.910667 0 
-0.951024 0.826562 0 
-1.95719 0.794914 0 
-2.0504 -0.765622 0 
-1.12017 -0.81557 0 
-1.85791 1.93222 0 
-2.95285 2.08066 0 
0.114156 0.956901 0 
1.04095 1.02502 0 
2.99702 2.06322 0 
1.90724 1.9683 0 
-2.97499 -2.18628 0 
-1.90514 -2.04166 0 
1.07236 0.944611 0 
1.98848 0.932176 0 
0.859681 -2.06497 0 
1.80296 -2.17639 0 
-0.0893371 -2.18965 0 
0.844608 -2.13791 0 
-0.849 2.02862 0 
-1.8109 2.11555 0 
0.0936691 2.15149 0 
-0.851409 2.09289 0 
-1.99435 -0.161006 0.0
-2.00188 -0.72842 0.0
-1.16468 -0.773373 0.0
-1.10877 -0.0842449 0.0
-1.86712 0.00679452 0.0
-0.0402416 -2.2161 0.0
0.00179364 -2.70764 0.0
0.808481 -2.73163 0.0
0.800309 -2.16953 0.0
0.149319 0.295443 0.0
0.0375131 0.774102 0.0
-0.862017 0.716309 0.0
-0.889666 0.0637337 0.0
-0.210648 -0.0400616 0.0
0.164792 0.922544 0.0
0.138954 0.796919 0.0
0.25076 0.31826 0.0
0.938148 0.199834 0.0
1.01366 0.253045 0.0
1.02718 0.911483 0.0
0.998906 0.983849 0.0
1.8502 -2.1948 0.0
1.70286 -2.67211 0.0
2.76466 -2.54828 0.0
2.91788 -2.18511 0.0
1.90402 -2.04618 0.0
-1.96047 0.0744496 0.0
-2.0464 0.641275 0.0
-3.03426 0.613872 0.0
-2.993 -0.0291815 0.0
-2.08769 -0.0933507 0.0
-2.10219 -0.73559 0.0
-2.09466 -0.168175 0.0
-2.99997 -0.104006 0.0
-3.04578 -0.788211 0.0
-2.12442 -0.794737 0.0
3.02065 0.0533342 0.0
3.07074 0.644709 0.0
2.06239 0.724899 0.0
1.92056 0.199022 0.0
2.0275 0.0385844 0.0
-0.0572043 -0.896516 0.0
0.0439433 -1.50206 0.0
0.799991 -1.5095 0.0
0.874165 -1.45666 0.0
0.927481 -0.757584 0.0
0.886776 -0.686098 0.0
-0.00832725 -0.732703 0.0
-1.7244 -2.65325 0.0
-1.02911 -2.71382 0.0
-1.02428 -1.73432 0.0
-1.14246 -1.66015 0.0
-1.8342 -1.6866 0.0
-1.8562 -2.05405 0.0
0.0909881 1.71418 0.0
0.0486289 2.12206 0.0
-0.801941 2.06932 0.0
-0.799773 2.01147 0.0
-0.77821 1.61118 0.0
-0.0265032 1.61652 0.0
0.943778 2.63942 0.0
0.0928723 2.59137 0.0
0.138175 2.15562 0.0
0.180535 1.74774 0.0
0.927585 1.7542 0.0
2.98214 -1.45513 0.0
3.05582 -0.765739 0.0
2.05562 -0.765769 0.0
1.98364 -1.35711 0.0
-1.8778 1.53592 0.0
-1.91562 1.90917 0.0
-2.90106 2.04277 0.0
-2.94824 1.42929 0.0
-1.97145 1.42774 0.0
2.99784 1.42809 0.0
2.9456 2.02902 0.0
1.96481 1.9436 0.0
1.9029 1.65657 0.0
2.04127 1.48083 0.0
-2.90971 -2.2052 0.0
-2.77882 -2.55947 0.0
-1.81505 -2.67423 0.0
-1.94685 -2.07504 0.0
1.94836 -0.766257 0.0
1.92308 -0.704345 0.0
1.02865 -0.757124 0.0
0.97533 -1.4562 0.0
1.77707 -1.46791 0.0
1.87638 -1.3576 0.0
-0.0579 -1.5215 0.0
-0.159048 -0.915956 0.0
-1.02395 -0.948696 0.0
-1.05796 -1.57268 0.0
-0.939783 -1.64685 0.0
-0.192743 -1.63902 0.0
-0.998978 0.860331 0.0
-0.959671 1.49297 0.0
-1.77736 1.48217 0.0
-1.87101 1.37399 0.0
-1.90453 0.831848 0.0
1.1162 0.907893 0.0
1.10269 0.249455 0.0
1.8214 0.22034 0.0
1.96323 0.746217 0.0
1.94071 0.896701 0.0
0.891021 -1.58132 0.0
0.909513 -2.03994 0.0
1.75846 -2.14021 0.0
1.81227 -1.99159 0.0
1.76693 -1.54018 0.0
0.965195 -1.52847 0.0
-0.877907 1.60542 0.0
-0.899471 2.00571 0.0
-1.76518 2.08395 0.0
-1.80749 1.91895 0.0
-1.76967 1.5457 0.0
-0.951985 1.5565 0.0
-0.941455 -2.72027 0.0
-0.0922829 -2.68524 0.0
-0.134318 -2.1937 0.0
-0.189585 -1.73294 0.0
-0.936625 -1.74077 0.0
1.79654 2.57959 0.0
1.03219 2.63532 0.0
1.01599 1.75011 0.0
1.08961 1.70414 0.0
1.79689 1.69963 0.0
1.8588 1.98666 0.0
-2.04666 0.71604 0.0
-2.0116 0.818482 0.0
-1.97808 1.36062 0.0
-2.95487 1.36217 0.0
-3.03452 0.688637 0.0
3.07525 0.715206 0.0
3.0043 1.36288 0.0
2.04772 1.41562 0.0
2.04438 0.94588 0.0
2.0669 0.795396 0.0
3.05645 -0.69316 0.0
3.02423 -0.0192175 0.0
2.03108 -0.0339673 0.0
2.03097 -0.631277 0.0
2.05624 -0.69319 0.0
-0.129605 -0.101334 0.0
-0.0114441 -0.645805 0.0
0.883659 -0.5992 0.0
0.91775 0.115744 0.0
0.230362 0.23417 0.0
1.87452 -1.53485 0.0
1.91986 -1.98627 0.0
2.93373 -2.1252 0.0
2.97234 -1.52256 0.0
1.97384 -1.42455 0.0
1.92229 -0.620719 0.0
1.9224 -0.0234094 0.0
1.81546 0.137029 0.0
1.09675 0.166143 0.0
1.02124 0.112932 0.0
0.987148 -0.602012 0.0
1.02785 -0.673498 0.0
-2.05014 -1.481 0.0
-2.12273 -0.865961 0.0
-3.0441 -0.859435 0.0
-2.97547 -1.50207 0.0
0.0335187 0.853074 0.0
0.0593561 0.978699 0.0
-0.0342139 1.54829 0.0
-0.785921 1.54295 0.0
-0.859998 1.49403 0.0
-0.899305 0.861394 0.0
-0.866012 0.795281 0.0
-0.163497 -0.834171 0.0
-0.11462 -0.670358 0.0
-0.23278 -0.125887 0.0
-0.911799 -0.0220917 0.0
-1.01377 -0.0921941 0.0
-1.06968 -0.781322 0.0
-1.0284 -0.86691 0.0
-0.965527 0.719069 0.0
-0.998821 0.785181 0.0
-1.90437 0.756698 0.0
-1.93943 0.654256 0.0
-1.8535 0.0874301 0.0
-1.09515 -0.00360932 0.0
-0.993176 0.0664931 0.0
-2.00209 -0.808432 0.0
-2.02432 -0.867579 0.0
-1.95174 -1.48261 0.0
-1.84937 -1.58942 0.0
-1.15762 -1.56296 0.0
-1.12361 -0.938973 0.0
-1.16489 -0.853385 0.0
-1.8997 1.96619 0.0
-1.85739 2.1312 0.0
-1.74431 2.57394 0.0
-2.73818 2.461 0.0
-2.88514 2.09979 0.0
0.0638108 1.56572 0.0
0.157381 0.996126 0.0
0.991495 1.05743 0.0
1.00196 1.62387 0.0
0.928352 1.66984 0.0
0.181302 1.66338 0.0
2.93344 2.08561 0.0
2.78081 2.49177 0.0
1.89039 2.59312 0.0
1.95265 2.00018 0.0
-2.96731 -1.56638 0.0
-2.92447 -2.14971 0.0
-1.96161 -2.01955 0.0
-1.93962 -1.6521 0.0
-2.04198 -1.5453 0.0
1.08791 1.05137 0.0
1.11618 0.979 0.0
1.94069 0.967808 0.0
1.94403 1.43755 0.0
1.80566 1.61329 0.0
1.09838 1.61781 0.0
0.900464 -2.10002 0.0
0.886898 -2.16566 0.0
0.89507 -2.72777 0.0
1.60206 -2.67761 0.0
1.74941 -2.2003 0.0
-0.0995981 -1.69584 0.0
-0.0443313 -2.1566 0.0
0.79622 -2.11003 0.0
0.809785 -2.04438 0.0
0.791293 -1.58576 0.0
0.0352452 -1.57832 0.0
-0.892761 2.06036 0.0
-0.894929 2.11821 0.0
-0.915591 2.63631 0.0
-1.64539 2.58135 0.0
-1.75847 2.1386 0.0
0.0432606 2.17487 0.0
-0.00204245 2.61063 0.0
-0.827971 2.64024 0.0
-0.807309 2.12214 0.0
</DataArray>
</Points>
<Cells>
<DataArray type="Int32" Name="connectivity" format="ascii">
14 70 91 90 70 71 92 91 71 37 93 92 37 12 94 93 12 14 90 94 84 4 96 95 4 43 97 96 43 85 98 97 85 84 95 98 8 64 100 99 64 65 101 100 65 39 102 101 39 6 103 102 6 8 99 103 74 64 105 104 64 8 106 105 8 35 107 106 35 40 108 107 40 80 109 108 80 75 110 109 75 74 104 110 83 10 112 111 10 1 113 112 1 59 114 113 59 58 115 114 58 83 111 115 12 50 117 116 50 51 118 117 51 7 119 118 7 14 120 119 14 12 116 120 70 14 122 121 14 7 123 122 7 63 124 123 63 62 125 124 62 70 121 125 9 52 127 126 52 53 128 127 53 17 129 128 17 11 130 129 11 9 126 130 66 18 132 131 18 42 133 132 42 34 134 133 34 61 135 134 61 57 136 135 57 56 137 136 56 66 131 137 15 46 139 138 46 47 140 139 47 36 141 140 36 20 142 141 20 79 143 142 79 15 138 143 24 88 145 144 88 89 146 145 89 86 147 146 86 44 148 147 44 22 149 148 22 24 144 149 48 5 151 150 5 88 152 151 88 24 153 152 24 49 154 153 49 48 150 154 27 54 156 155 54 55 157 156 55 26 158 157 26 27 155 158 23 72 160 159 72 73 161 160 73 29 162 161 29 28 163 162 28 23 159 163 30 76 165 164 76 77 166 165 77 25 167 166 25 31 168 167 31 30 164 168 78 0 170 169 0 15 171 170 15 79 172 171 79 78 169 172 55 60 174 173 60 61 175 174 61 34 176 175 34 19 177 176 19 26 178 177 26 55 173 178 18 66 180 179 66 67 181 180 67 36 182 181 36 47 183 182 47 21 184 183 21 18 179 184 68 38 186 185 38 23 187 186 23 28 188 187 28 69 189 188 69 68 185 189 80 40 191 190 40 17 192 191 17 53 193 192 53 81 194 193 81 80 190 194 42 82 196 195 82 83 197 196 83 58 198 197 58 19 199 198 19 34 200 199 34 42 195 200 44 86 202 201 86 87 203 202 87 72 204 203 72 23 205 204 23 38 206 205 38 44 201 206 46 4 208 207 4 84 209 208 84 21 210 209 21 47 211 210 47 46 207 211 16 48 213 212 48 49 214 213 49 41 215 214 41 25 216 215 25 77 217 216 77 16 212 217 50 69 219 218 69 28 220 219 28 29 221 220 29 51 222 221 51 50 218 222 52 30 224 223 30 31 225 224 31 81 226 225 81 53 227 226 53 52 223 227 54 9 229 228 9 11 230 229 11 60 231 230 60 55 232 231 55 54 228 232 6 56 234 233 56 57 235 234 57 35 236 235 35 8 237 236 8 6 233 237 19 58 239 238 58 59 240 239 59 27 241 240 27 26 242 241 26 19 238 242 60 11 244 243 11 17 245 244 17 40 246 245 40 35 247 246 35 57 248 247 57 61 249 248 61 60 243 249 32 62 251 250 62 63 252 251 63 33 253 252 33 32 250 253 64 74 255 254 74 22 256 255 22 44 257 256 44 38 258 257 38 68 259 258 68 65 260 259 65 64 254 260 66 56 262 261 56 6 263 262 6 39 264 263 39 37 265 264 37 71 266 265 71 67 267 266 67 66 261 267 65 68 269 268 68 69 270 269 69 50 271 270 50 12 272 271 12 37 273 272 37 39 274 273 39 65 268 274 70 62 276 275 62 32 277 276 32 20 278 277 20 36 279 278 36 67 280 279 67 71 281 280 71 70 275 281 72 87 283 282 87 13 284 283 13 2 285 284 2 73 286 285 73 72 282 286 22 74 288 287 74 75 289 288 75 41 290 289 41 49 291 290 49 24 292 291 24 22 287 292 76 3 294 293 3 16 295 294 16 77 296 295 77 76 293 296 33 78 298 297 78 79 299 298 79 20 300 299 20 32 301 300 32 33 297 301 75 80 303 302 80 81 304 303 81 31 305 304 31 25 306 305 25 41 307 306 41 75 302 307 82 85 309 308 85 43 310 309 43 10 311 310 10 83 312 311 83 82 308 312 21 84 314 313 84 85 315 314 85 82 316 315 82 42 317 316 42 18 318 317 18 21 313 318 86 89 320 319 89 45 321 320 45 13 322 321 13 87 323 322 87 86 319 323 88 5 325 324 5 45 326 325 45 89 327 326 89 88 324 327 
</DataArray>
<DataArray type="Int32" Name="offsets" format="ascii">
4 8 12 16 20 24 28 32 36 40 44 48 52 56 60 64 68 72 76 80 84 88 92 96 100 104 108 112 116 120 124 128 132 136 140 144 148 152 156 160 164 168 172 176 180 184 188 192 196 200 204 208 212 216 220 224 228 232 236 240 244 248 252 256 260 264 268 272 276 280 284 288 292 296 300 304 308 312 316 320 324 328 332 336 340 344 348 352 356 360 364 368 372 376 380 384 388 392 396 400 404 408 412 416 420 424 428 432 436 440 444 448 452 456 460 464 468 472 476 480 484 488 492 496 500 504 508 512 516 520 524 528 532 536 540 544 548 552 556 560 564 568 572 576 580 584 588 592 596 600 604 608 612 616 620 624 628 632 636 640 644 648 652 656 660 664 668 672 676 680 684 688 692 696 700 704 708 712 716 720 724 728 732 736 740 744 748 752 756 760 764 768 772 776 780 784 788 792 796 800 804 808 812 816 820 824 828 832 836 840 844 848 852 856 860 864 868 872 876 880 884 888 892 896 900 904 908 912 916 920 924 928 932 936 940 944 948 952 
</DataArray>
<DataArray type="UInt8" Name="types" format="ascii">
7 7 7 7 7 7 7 7 7 7 7 7 7 7 7 7 7 7 7 7 7 7 7 7 7 7 7 7 7 7 7 7 7 7 7 7 7 7 7 7 7 7 7 7 7 7 7 7 7 7 7 7 7 7 7 7 7 7 7 7 7 7 7 7 7 7 7 7 7 7 7 7 7 7 7 7 7 7 7 7 7 7 7 7 7 7 7 7 7 7 7 7 7 7 7 7 7 7 7 7 7 7 7 7 7 7 7 7 7 7 7 7 7 7 7 7 7 7 7 7 7 7 7 7 7 7 7 7 7 7 7 7 7 7 7 7 7 7 7 7 7 7 7 7 7 7 7 7 7 7 7 7 7 7 7 7 7 7 7 7 7 7 7 7 7 7 7 7 7 7 7 7 7 7 7 7 7 7 7 7 7 7 7 7 7 7 7 7 7 7 7 7 7 7 7 7 7 7 7 7 7 7 7 7 7 7 7 7 7 7 7 7 7 7 7 7 7 7 7 7 7 7 7 7 7 7 7 7 7 7 7 7 7 7 7 7 7 7 
</DataArray>
</Cells>
<CellData Scalars="wall variable 0">
<DataArray type="Float64" Name="wall length" format="ascii">
0.491544 0.81682 0.614577 0.663713 0.175602 0.479566 0.697082 0.564803 0.886402 0.423203 0.873185 0.576416 0.583809 0.409761 0.110635 0.423203 0.59187 0.0746192 0.591581 0.0694321 0.831989 0.489607 0.995891 0.376661 1.0451 0.147315 0.490626 0.992077 0.561454 0.865178 0.175602 0.491544 0.865178 0.60153 0.930889 0.0545092 0.517075 1.02429 0.469197 0.158892 0.945219 0.538466 0.645351 0.0745488 0.626819 0.0710762 0.852884 0.146405 0.61731 0.96606 0.11801 0.609645 0.338916 0.595374 0.390338 0.945659 0.0574361 0.385435 0.644303 0.127315 0.745986 0.41806 0.390338 0.649204 0.876987 0.613989 0.998492 0.517772 0.965937 0.342655 1.02332 0.561837 0.939181 0.120607 0.552239 1.01419 0.2703 0.191332 0.924905 0.362659 0.911162 0.595374 1.00715 0.0569029 0.857581 0.626819 0.703118 0.124536 0.517772 0.538466 0.837198 0.56637 0.11801 0.647777 0.147883 0.574279 0.720817 0.120607 0.475153 0.886232 0.591581 0.61838 0.469197 0.131996 0.835747 0.427942 0.89339 0.147315 0.40967 0.703118 0.0745488 0.385435 0.939807 0.16069 0.342655 0.720817 0.0736606 0.740873 0.479566 0.429798 0.647777 0.96606 0.680913 0.876987 0.0734706 0.625243 0.2703 0.582772 0.0921985 0.475153 0.939181 0.599383 0.992077 0.57613 0.924905 0.414304 0.131996 1.02429 0.589523 0.945219 0.512003 0.0569029 0.998492 0.48035 0.852884 0.627255 0.59187 0.409761 0.40967 1.0451 0.548583 0.965937 0.124536 0.512003 0.158892 0.61838 0.0746192 0.627255 0.0710762 0.857581 0.545125 0.930889 0.573949 0.89458 0.110635 0.509508 0.644303 0.0736606 0.574279 0.064869 0.873185 0.146405 0.48035 0.583809 0.100325 0.614577 0.0831511 0.837198 0.064869 0.886232 0.0921985 0.490626 0.663713 0.100325 0.576416 0.0545092 0.545125 0.12525 0.609645 0.56637 0.0831511 0.81682 0.16069 0.448176 0.934581 0.373582 1.02332 0.509508 0.831989 0.518897 0.0734706 0.649204 0.127315 0.416228 0.8394 0.582772 1.01419 0.535347 1.00715 0.338916 0.12525 0.89458 0.0694321 0.835747 0.414304 0.191332 0.625243 0.518897 0.0644039 0.564803 0.619905 0.489607 0.89339 0.429798 0.886402 0.0644039 0.427942 0.645351 0.147883 0.0574361 0.516919 0.642579 0.448176 0.939807 0.41806 0.716443 0.516919 0.945659 
</DataArray>
<DataArray type="Float64" Name="wall variable 0" format="ascii">
0 0 0 0 0 0 0 0 0 0 0 0 0 0 0 0 0 0 0 0 0 0 0 0 0 0 0 0 0 0 0 0 0 0 0 0 0 0 0 0 0 0 0 0 0 0 0 0 0 0 0 0 0 0 0 0 0 0 0 0 0 0 0 0 0 0 0 0 0 0 0 0 0 0 0 0 0 0 0 0 0 0 0 0 0 0 0 0 0 0 0 0 0 0 0 0 0 0 0 0 0 0 0 0 0 0 0 0 0 0 0 0 0 0 0 0 0 0 0 0 0 0 0 0 0 0 0 0 0 0 0 0 0 0 0 0 0 0 0 0 0 0 0 0 0 0 0 0 0 0 0 0 0 0 0 0 0 0 0 0 0 0 0 0 0 0 0 0 0 0 0 0 0 0 0 0 0 0 0 0 0 0 0 0 0 0 0 0 0 0 0 0 0 0 0 0 0 0 0 0 0 0 0 0 0 0 0 0 0 0 0 0 0 0 0 0 0 0 0 0 0 0 0 0 0 0 0 0 0 0 0 0 0 0 0 0 0 0 
</DataArray>
<DataArray type="Float64" Name="wall variable 1" format="ascii">
0 0 0 0 0 0 0 0 0 0 0 0 0 0 0 0 0 0 0 0 0 0 0 0 0 0 0 0 0 0 0 0 0 0 0 0 0 0 0 0 0 0 0 0 0 0 0 0 0 0 0 0 0 0 0 0 0 0 0 0 0 0 0 0 0 0 0 0 0 0 0 0 0 0 0 0 0 0 0 0 0 0 0 0 0 0 0 0 0 0 0 0 0 0 0 0 0 0 0 0 0 0 0 0 0 0 0 0 0 0 0 0 0 0 0 0 0 0 0 0 0 0 0 0 0 0 0 0 0 0 0 0 0 0 0 0 0 0 0 0 0 0 0 0 0 0 0 0 0 0 0 0 0 0 0 0 0 0 0 0 0 0 0 0 0 0 0 0 0 0 0 0 0 0 0 0 0 0 0 0 0 0 0 0 0 0 0 0 0 0 0 0 0 0 0 0 0 0 0 0 0 0 0 0 0 0 0 0 0 0 0 0 0 0 0 0 0 0 0 0 0 0 0 0 0 0 0 0 0 0 0 0 0 0 0 0 0 0 
</DataArray>
</CellData>
</Piece>
</UnstructuredGrid>
</VTKFile>
