<VTKFile type="UnstructuredGrid" version="0.1">
<UnstructuredGrid>
<Piece  NumberOfPoints="      14" NumberOfCells="       8">
<Points>
<DataArray type="Float64" NumberOfComponents="3" format="ascii">
-0.568634 -0.568662 0 
0.568635 -0.568663 0 
-0.568635 0.568663 0 
0.568634 0.568662 0 
0.0017452 -0.56903 0 
-0.0017452 0.56903 0 
-0.5402 -0.511854 0.0
-0.0268579 -0.512185 0.0
-0.0299993 0.512069 0.0
-0.5402 0.511738 0.0
0.0299993 -0.512069 0.0
0.5402 -0.511738 0.0
0.5402 0.511854 0.0
0.0268579 0.512185 0.0
</DataArray>
</Points>
<Cells>
<DataArray type="Int32" Name="connectivity" format="ascii">
0 4 7 6 4 5 8 7 5 2 9 8 2 0 6 9 4 1 11 10 1 3 12 11 3 5 13 12 5 4 10 13 
</DataArray>
<DataArray type="Int32" Name="offsets" format="ascii">
4 8 12 16 20 24 28 32 
</DataArray>
<DataArray type="UInt8" Name="types" format="ascii">
7 7 7 7 7 7 7 7 
</DataArray>
</Cells>
<CellData Scalars="wall variable 0">
<DataArray type="Float64" Name="wall length" format="ascii">
0.527488 1.05254 0.524261 1.05176 0.524261 1.05176 0.527488 1.05254 
</DataArray>
<DataArray type="Float64" Name="wall variable 0" format="ascii">
0 0 0 0 0 0 0 0 
</DataArray>
<DataArray type="Float64" Name="wall variable 1" format="ascii">
0 0 0 0 0 0 0 0 
</DataArray>
</CellData>
</Piece>
</UnstructuredGrid>
</VTKFile>
