<VTKFile type="UnstructuredGrid" version="0.1">
<UnstructuredGrid>
<Piece  NumberOfPoints="      18" NumberOfCells="       4">
<Points>
<DataArray type="Float64" NumberOfComponents="3" format="ascii">
-0.0402422 -0.744146 0.0
-0.062987 -0.0409407 0.0
-0.792599 -0.0481154 0.0
-0.745478 -0.746595 0.0
0.0605101 0.0208111 0.0
0.0173452 -0.0386084 0.0
0.04009 -0.741814 0.0
0.742738 -0.742436 0.0
0.791331 -0.0404648 0.0
-0.06196 0.0359053 0.0
-0.018795 0.0953248 0.0
-0.0405793 0.727919 0.0
-0.743209 0.728372 0.0
-0.791572 0.0287306 0.0
0.041065 0.730073 0.0
0.0628493 0.0974796 0.0
0.79367 0.0362037 0.0
0.746201 0.732342 0.0
</DataArray>
</Points>
<Cells>
<DataArray type="Int32" Name="connectivity" format="ascii">
0 1 2 3 
4 5 6 7 8 
9 10 11 12 13 
14 15 16 17 
</DataArray>
<DataArray type="Int32" Name="offsets" format="ascii">
4 9 14 18 
</DataArray>
<DataArray type="UInt8" Name="types" format="ascii">
7 7 7 7 
</DataArray>
</Cells>
<CellData Scalars="cell variable 4" Vectors="cell vector">
<DataArray type="Float64" NumberOfComponents="3" Name="cell vector" format="ascii">
0 1 1
0 1 1
0 1 1
0 1 1
</DataArray>
<DataArray type="Float64" Name="cell vector length" format="ascii">
0.250128 0.262133 0.249872 0.237867 
</DataArray>
<DataArray type="Float64" Name="cell variable 4" format="ascii">
0 0 0 0 
</DataArray>
<DataArray type="Float64" Name="cell variable 5" format="ascii">
0 0 0 0 
</DataArray>
<DataArray type="Float64" Name="cell variable 6" format="ascii">
0 0 0 0 
</DataArray>
<DataArray type="Float64" Name="cell variable 7" format="ascii">
0 0 0 0 
</DataArray>
<DataArray type="Float64" Name="cell variable 8" format="ascii">
0 0 0 0 
</DataArray>
</CellData>
</Piece>
</UnstructuredGrid>
</VTKFile>
