<VTKFile type="UnstructuredGrid" version="0.1">
<UnstructuredGrid>
<Piece  NumberOfPoints="     100" NumberOfCells="      19">
<Points>
<DataArray type="Float64" NumberOfComponents="3" format="ascii">
-1.04653 -0.89344 0.0
-0.627135 -0.909279 0.0
-0.587796 -0.0270521 0.0
-1.03928 0.00681194 0.0
-1.11202 -0.0791369 0.0
-1.09535 -0.826959 0.0
0.016741 -0.998502 0.0
0.0650511 -1.68425 0.0
0.956702 -1.68669 0.0
1.02812 -0.897092 0.0
0.544829 -0.915215 0.0
0.0763058 -0.927718 0.0
0.016649 0.919801 0.0
-0.451996 0.904133 0.0
-0.459519 0.0660597 0.0
-0.0784744 0.0383666 0.0
0.108605 0.21637 0.0
0.146016 0.995648 0.0
0.0978917 0.931676 0.0
0.189848 0.228245 0.0
0.573677 0.187412 0.0
1.03584 0.16714 0.0
1.1213 0.855237 0.0
1.06164 0.968118 0.0
1.17278 -0.831103 0.0
1.12172 -0.893585 0.0
1.05031 -1.68318 0.0
1.78883 -1.60898 0.0
1.91223 -0.933818 0.0
-1.10184 0.0938455 0.0
-1.12421 0.808325 0.0
-1.84827 0.841378 0.0
-1.83784 0.0366459 0.0
-1.17458 0.00789666 0.0
-1.16134 -0.828422 0.0
-1.17801 -0.0805999 0.0
-1.84128 -0.0518507 0.0
-1.85378 -0.872944 0.0
1.91219 0.0728187 0.0
1.9296 0.832076 0.0
1.21424 0.840447 0.0
1.12879 0.15235 0.0
1.18879 0.0722692 0.0
0.051316 -0.83357 0.0
0.519839 -0.821067 0.0
0.539233 0.0925446 0.0
0.155404 0.133377 0.0
-0.0316755 -0.0446268 0.0
-1.01429 -0.983344 0.0
-0.970838 -1.69815 0.0
-0.040131 -1.68956 0.0
-0.0884411 -1.00381 0.0
-0.59489 -0.999184 0.0
-0.0110261 1.00506 0.0
0.0370985 1.06903 0.0
-0.00405614 1.68218 0.0
-0.93003 1.68827 0.0
-0.976832 0.962184 0.0
-0.479671 0.989393 0.0
0.103918 1.68728 0.0
0.145073 1.07414 0.0
1.0607 1.04661 0.0
1.08922 1.70587 0.0
1.19039 -0.0134146 0.0
1.18319 -0.746067 0.0
1.92263 -0.848782 0.0
1.91379 -0.0128651 0.0
-1.117 0.893236 0.0
-1.07014 0.956323 0.0
-1.02334 1.68241 0.0
-1.71866 1.61468 0.0
-1.84106 0.926289 0.0
1.92643 0.915147 0.0
1.80454 1.63233 0.0
1.17994 1.69567 0.0
1.15142 1.0364 0.0
1.21107 0.923518 0.0
-1.10421 -0.977755 0.0
-1.15303 -0.911274 0.0
-1.84547 -0.955796 0.0
-1.74086 -1.62143 0.0
-1.06076 -1.69256 0.0
0.577509 -0.822837 0.0
1.0608 -0.804713 0.0
1.11186 -0.742231 0.0
1.11907 -0.00957816 0.0
1.05907 0.0705023 0.0
0.596903 0.0907746 0.0
-0.57176 -0.914278 0.0
-0.0653104 -0.918904 0.0
-0.00574564 -0.84812 0.0
-0.0887372 -0.0591772 0.0
-0.469781 -0.0314841 0.0
-0.53242 -0.0320505 0.0
-0.509633 0.905122 0.0
-1.00679 0.877913 0.0
-1.05365 0.814826 0.0
-1.03128 0.100347 0.0
-0.579794 0.066483 0.0
-0.517156 0.0670494 0.0
</DataArray>
</Points>
<Cells>
<DataArray type="Int32" Name="connectivity" format="ascii">
0 1 2 3 4 5 
6 7 8 9 10 11 
12 13 14 15 16 
17 18 19 20 21 22 23 
24 25 26 27 28 
29 30 31 32 33 
34 35 36 37 
38 39 40 41 42 
43 44 45 46 47 
48 49 50 51 52 
53 54 55 56 57 58 
59 60 61 62 
63 64 65 66 
67 68 69 70 71 
72 73 74 75 76 
77 78 79 80 81 
82 83 84 85 86 87 
88 89 90 91 92 93 
94 95 96 97 98 99 
</DataArray>
<DataArray type="Int32" Name="offsets" format="ascii">
6 12 17 24 29 34 38 43 48 53 59 63 67 72 77 82 88 94 100 
</DataArray>
<DataArray type="UInt8" Name="types" format="ascii">
7 7 7 7 7 7 7 7 7 7 7 7 7 7 7 7 7 7 7 
</DataArray>
</Cells>
<CellData Scalars="cell variable 4" Vectors="cell vector">
<DataArray type="Float64" NumberOfComponents="3" Name="cell vector" format="ascii">
0 1 1
0 1 1
0 1 1
0 1 1
0 1 1
0 1 1
0 1 1
0 1 1
0 1 1
0 1 1
0 1 1
0 1 1
0 1 1
0 1 1
0 1 1
0 1 1
0 1 1
0 1 1
0 1 1
</DataArray>
<DataArray type="Float64" Name="cell vector length" format="ascii">
0.0336938 0.0649171 0.0318698 0.0573502 0.067851 0.06264 0.0599332 0.0626166 0.0337577 0.062235 0.0617085 0.0578257 0.0624139 0.0624141 0.0600748 0.0608911 0.0331929 0.0333746 0.0312398 
</DataArray>
<DataArray type="Float64" Name="cell variable 4" format="ascii">
0 0 0 0 0 0 0 0 0 0 0 0 0 0 0 0 0 0 0 
</DataArray>
<DataArray type="Float64" Name="cell variable 5" format="ascii">
0 0 0 0 0 0 0 0 0 0 0 0 0 0 0 0 0 0 0 
</DataArray>
<DataArray type="Float64" Name="cell variable 6" format="ascii">
0 0 0 0 0 0 0 0 0 0 0 0 0 0 0 0 0 0 0 
</DataArray>
<DataArray type="Float64" Name="cell variable 7" format="ascii">
0 0 0 0 0 0 0 0 0 0 0 0 0 0 0 0 0 0 0 
</DataArray>
<DataArray type="Float64" Name="cell variable 8" format="ascii">
0 0 0 0 0 0 0 0 0 0 0 0 0 0 0 0 0 0 0 
</DataArray>
</CellData>
</Piece>
</UnstructuredGrid>
</VTKFile>
