<VTKFile type="UnstructuredGrid" version="0.1">
<UnstructuredGrid>
<Piece  NumberOfPoints="     220" NumberOfCells="      41">
<Points>
<DataArray type="Float64" NumberOfComponents="3" format="ascii">
-1.88038 -0.102292 0.0
-1.8899 -0.629678 0.0
-1.10216 -0.673578 0.0
-1.05578 -0.0312751 0.0
-1.76275 0.0514546 0.0
0.704021 -1.45608 0.0
0.00583982 -1.45405 0.0
-0.119205 -1.55911 0.0
-0.0289842 -2.47215 0.0
0.721042 -2.49899 0.0
0.711775 -1.87878 0.0
0.110489 0.316407 0.0
0.014297 0.762437 0.0
-0.829742 0.708728 0.0
-0.853196 0.102475 0.0
-0.224297 0.0105541 0.0
0.117315 0.901673 0.0
0.108181 0.783468 0.0
0.204373 0.337438 0.0
0.840116 0.228785 0.0
0.909698 0.275105 0.0
0.916206 0.889003 0.0
0.901792 0.959337 0.0
1.68772 -2.00113 0.0
1.55782 -2.4702 0.0
2.56784 -2.35414 0.0
2.70998 -2.00364 0.0
1.72692 -1.85834 0.0
-1.85146 0.114397 0.0
-1.93109 0.639582 0.0
-2.88342 0.61661 0.0
-2.83738 0.0188198 0.0
-1.96909 -0.0393501 0.0
-1.98501 -0.636308 0.0
-1.97549 -0.108922 0.0
-2.84379 -0.0507523 0.0
-2.88957 -0.68848 0.0
-2.0013 -0.692404 0.0
2.80462 0.0939078 0.0
2.8558 0.643665 0.0
1.88022 0.717014 0.0
1.75314 0.227645 0.0
1.85261 0.0817031 0.0
-0.0746927 -0.78909 0.0
0.0122099 -1.35499 0.0
0.710391 -1.35702 0.0
0.77985 -1.31297 0.0
0.825235 -0.661253 0.0
0.79345 -0.592881 0.0
-0.0450597 -0.634437 0.0
-1.63576 -2.45486 0.0
-0.986127 -2.51797 0.0
-0.979797 -1.57387 0.0
-1.08964 -1.50762 0.0
-1.73387 -1.52509 0.0
-1.73073 -1.87232 0.0
-0.752788 1.57263 0.0
-0.0571334 1.57843 0.0
0.050194 1.66903 0.0
-0.0306219 2.47951 0.0
-0.798901 2.51304 0.0
0.849347 2.53587 0.0
0.0550484 2.48649 0.0
0.135864 1.67601 0.0
0.830864 1.68176 0.0
2.77332 -1.31446 0.0
2.8445 -0.669012 0.0
1.88158 -0.665329 0.0
1.81448 -1.21601 0.0
-1.77537 1.47197 0.0
-1.7906 1.82375 0.0
-2.74745 1.95709 0.0
-2.80061 1.37834 0.0
-1.86337 1.37368 0.0
2.78758 1.37535 0.0
2.72641 1.94151 0.0
1.777 1.85933 0.0
1.73919 1.5849 0.0
1.86924 1.4236 0.0
-2.749 -2.01835 0.0
-2.63969 -2.36367 0.0
-1.72111 -2.47425 0.0
-1.81609 -1.89171 0.0
1.77979 -0.665567 0.0
1.75994 -0.607231 0.0
0.919041 -0.660751 0.0
0.873655 -1.31247 0.0
1.62022 -1.31645 0.0
1.7127 -1.21625 0.0
-0.082108 -1.37319 0.0
-0.169011 -0.807287 0.0
-0.981149 -0.839666 0.0
-1.01152 -1.42429 0.0
-0.901676 -1.49054 0.0
-0.207153 -1.47825 0.0
-0.950021 0.845056 0.0
-0.918228 1.43876 0.0
-1.6807 1.42137 0.0
-1.7687 1.32307 0.0
-1.80444 0.817762 0.0
0.998466 0.885616 0.0
0.991958 0.271718 0.0
1.65911 0.247231 0.0
1.78619 0.7366 0.0
1.77756 0.877455 0.0
0.794463 -1.42377 0.0
0.802216 -1.84647 0.0
1.60066 -1.94847 0.0
1.63986 -1.80568 0.0
1.61049 -1.38369 0.0
0.863922 -1.37971 0.0
-0.907723 1.52409 0.0
-0.839319 1.56725 0.0
-0.885432 2.50766 0.0
-1.56586 2.4507 0.0
-1.68542 1.85848 0.0
-1.67019 1.5067 0.0
-0.905431 -2.52379 0.0
-0.114356 -2.48044 0.0
-0.204577 -1.5674 0.0
-0.8991 -1.57969 0.0
1.6468 2.47489 0.0
0.931162 2.53203 0.0
0.912679 1.67792 0.0
0.980939 1.63666 0.0
1.63926 1.62639 0.0
1.67707 1.90082 0.0
-1.93173 0.70908 0.0
-1.90609 0.805411 0.0
-1.87035 1.31072 0.0
-2.80759 1.31539 0.0
-2.88406 0.686108 0.0
2.86046 0.709206 0.0
2.79433 1.31411 0.0
1.87599 1.36236 0.0
1.87624 0.92341 0.0
1.88488 0.782554 0.0
2.84496 -0.601376 0.0
2.80832 0.026471 0.0
1.8563 0.0142663 0.0
1.86219 -0.539357 0.0
1.88204 -0.597693 0.0
-0.149445 -0.0465392 0.0
-0.0480183 -0.553775 0.0
0.790492 -0.512219 0.0
0.821083 0.150661 0.0
0.18534 0.259313 0.0
1.71249 -1.37938 0.0
1.74186 -1.80137 0.0
2.72492 -1.94668 0.0
2.7638 -1.37764 0.0
1.80497 -1.27918 0.0
1.75938 -0.529766 0.0
1.7535 0.0238573 0.0
1.65403 0.169799 0.0
0.986869 0.194286 0.0
0.917287 0.147966 0.0
0.886695 -0.514913 0.0
0.91848 -0.583286 0.0
-1.93702 -1.33374 0.0
-1.9998 -0.758851 0.0
-2.88807 -0.754927 0.0
-2.82535 -1.35588 0.0
0.0104814 0.835965 0.0
0.0196151 0.95417 0.0
-0.0616101 1.48877 0.0
-0.757265 1.48297 0.0
-0.825668 1.43982 0.0
-0.857461 0.846112 0.0
-0.833557 0.782256 0.0
-0.173096 -0.731149 0.0
-0.143463 -0.576496 0.0
-0.244891 -0.0692609 0.0
-0.873789 0.0226604 0.0
-0.967692 -0.0387708 0.0
-1.01407 -0.681074 0.0
-0.985235 -0.763528 0.0
-0.926034 0.711358 0.0
-0.949938 0.775214 0.0
-1.80436 0.74792 0.0
-1.82999 0.651589 0.0
-1.75036 0.126404 0.0
-1.04339 0.043674 0.0
-0.949488 0.105105 0.0
-1.89035 -0.704239 0.0
-1.90664 -0.760335 0.0
-1.84386 -1.33523 0.0
-1.74838 -1.43268 0.0
-1.10414 -1.41522 0.0
-1.07377 -0.830594 0.0
-1.10261 -0.748139 0.0
-1.77543 1.87807 0.0
-1.65587 2.47029 0.0
-2.6019 2.36203 0.0
-2.73228 2.0114 0.0
0.0291876 1.50501 0.0
0.110413 0.970407 0.0
0.89489 1.02807 0.0
0.899775 1.5601 0.0
0.831515 1.60136 0.0
0.136515 1.59561 0.0
2.71492 1.99548 0.0
2.58368 2.39053 0.0
1.73524 2.48738 0.0
1.76551 1.9133 0.0
-2.81703 -1.41625 0.0
-2.76299 -1.96543 0.0
-1.83008 -1.8388 0.0
-1.83322 -1.49157 0.0
-1.92871 -1.39412 0.0
0.98465 1.02227 0.0
0.999064 0.95194 0.0
1.77816 0.943779 0.0
1.7779 1.38273 0.0
1.64785 1.54403 0.0
0.989536 1.55431 0.0
0.794463 -1.90396 0.0
0.80373 -2.52417 0.0
1.46301 -2.47504 0.0
1.59291 -2.00597 0.0
</DataArray>
</Points>
<Cells>
<DataArray type="Int32" Name="connectivity" format="ascii">
0 1 2 3 4 
5 6 7 8 9 10 
11 12 13 14 15 
16 17 18 19 20 21 22 
23 24 25 26 27 
28 29 30 31 32 
33 34 35 36 37 
38 39 40 41 42 
43 44 45 46 47 48 49 
50 51 52 53 54 55 
56 57 58 59 60 
61 62 63 64 
65 66 67 68 
69 70 71 72 73 
74 75 76 77 78 
79 80 81 82 
83 84 85 86 87 88 
89 90 91 92 93 94 
95 96 97 98 99 
100 101 102 103 104 
105 106 107 108 109 110 
111 112 113 114 115 116 
117 118 119 120 
121 122 123 124 125 126 
127 128 129 130 131 
132 133 134 135 136 
137 138 139 140 141 
142 143 144 145 146 
147 148 149 150 151 
152 153 154 155 156 157 158 
159 160 161 162 
163 164 165 166 167 168 169 
170 171 172 173 174 175 176 
177 178 179 180 181 182 183 
184 185 186 187 188 189 190 
191 192 193 194 
195 196 197 198 199 200 
201 202 203 204 
205 206 207 208 209 
210 211 212 213 214 215 
216 217 218 219 
</DataArray>
<DataArray type="Int32" Name="offsets" format="ascii">
5 11 16 23 28 33 38 43 50 56 61 65 69 74 79 83 89 95 100 105 111 117 121 127 132 137 142 147 152 159 163 170 177 184 191 195 201 205 210 216 220 
</DataArray>
<DataArray type="UInt8" Name="types" format="ascii">
7 7 7 7 7 7 7 7 7 7 7 7 7 7 7 7 7 7 7 7 7 7 7 7 7 7 7 7 7 7 7 7 7 7 7 7 7 7 7 7 7 
</DataArray>
</Cells>
<CellData Scalars="cell variable 4" Vectors="cell vector">
<DataArray type="Float64" NumberOfComponents="3" Name="cell vector" format="ascii">
0 1 1
0 1 1
0 1 1
0 1 1
0 1 1
0 1 1
0 1 1
0 1 1
0 1 1
0 1 1
0 1 1
0 1 1
0 1 1
0 1 1
0 1 1
0 1 1
0 1 1
0 1 1
0 1 1
0 1 1
0 1 1
0 1 1
0 1 1
0 1 1
0 1 1
0 1 1
0 1 1
0 1 1
0 1 1
0 1 1
0 1 1
0 1 1
0 1 1
0 1 1
0 1 1
0 1 1
0 1 1
0 1 1
0 1 1
0 1 1
0 1 1
</DataArray>
<DataArray type="Float64" Name="cell vector length" format="ascii">
0.0166331 0.0320328 0.0162357 0.0142376 0.0335486 0.0314001 0.0298815 0.0316085 0.0165572 0.0312187 0.0299455 0.0283555 0.0312366 0.0315349 0.030528 0.0301485 0.0162655 0.017068 0.0149258 0.0140381 0.0168507 0.031763 0.0310163 0.0294702 0.0312399 0.0310082 0.0311773 0.0172005 0.0343024 0.0169273 0.0300517 0.0156341 0.0163066 0.016314 0.0170607 0.0308792 0.014818 0.0295468 0.0307427 0.0142565 0.0160336 
</DataArray>
<DataArray type="Float64" Name="cell variable 4" format="ascii">
0 0 0 0 0 0 0 0 0 0 0 0 0 0 0 0 0 0 0 0 0 0 0 0 0 0 0 0 0 0 0 0 0 0 0 0 0 0 0 0 0 
</DataArray>
<DataArray type="Float64" Name="cell variable 5" format="ascii">
0 0 0 0 0 0 0 0 0 0 0 0 0 0 0 0 0 0 0 0 0 0 0 0 0 0 0 0 0 0 0 0 0 0 0 0 0 0 0 0 0 
</DataArray>
<DataArray type="Float64" Name="cell variable 6" format="ascii">
0 0 0 0 0 0 0 0 0 0 0 0 0 0 0 0 0 0 0 0 0 0 0 0 0 0 0 0 0 0 0 0 0 0 0 0 0 0 0 0 0 
</DataArray>
<DataArray type="Float64" Name="cell variable 7" format="ascii">
0 0 0 0 0 0 0 0 0 0 0 0 0 0 0 0 0 0 0 0 0 0 0 0 0 0 0 0 0 0 0 0 0 0 0 0 0 0 0 0 0 
</DataArray>
<DataArray type="Float64" Name="cell variable 8" format="ascii">
0 0 0 0 0 0 0 0 0 0 0 0 0 0 0 0 0 0 0 0 0 0 0 0 0 0 0 0 0 0 0 0 0 0 0 0 0 0 0 0 0 
</DataArray>
</CellData>
</Piece>
</UnstructuredGrid>
</VTKFile>
