<VTKFile type="UnstructuredGrid" version="0.1">
<UnstructuredGrid>
<Piece  NumberOfPoints="      14" NumberOfCells="       8">
<Points>
<DataArray type="Float64" NumberOfComponents="3" format="ascii">
-0.601461 -0.601509 0 
0.601462 -0.601509 0 
-0.601462 0.601509 0 
0.601461 0.601509 0 
0.00184607 -0.601876 0 
-0.00184607 0.601876 0 
-0.571385 -0.541419 0.0
-0.0284085 -0.54175 0.0
-0.0317314 0.541627 0.0
-0.571386 0.541297 0.0
0.0317314 -0.541627 0.0
0.571386 -0.541297 0.0
0.571385 0.541419 0.0
0.0284085 0.54175 0.0
</DataArray>
</Points>
<Cells>
<DataArray type="Int32" Name="connectivity" format="ascii">
0 4 7 6 4 5 8 7 5 2 9 8 2 0 6 9 4 1 11 10 1 3 12 11 3 5 13 12 5 4 10 13 
</DataArray>
<DataArray type="Int32" Name="offsets" format="ascii">
4 8 12 16 20 24 28 32 
</DataArray>
<DataArray type="UInt8" Name="types" format="ascii">
7 7 7 7 7 7 7 7 
</DataArray>
</Cells>
<CellData Scalars="wall variable 0">
<DataArray type="Float64" Name="wall length" format="ascii">
0.555094 1.1076 0.551699 1.10684 0.551699 1.10684 0.555094 1.1076 
</DataArray>
<DataArray type="Float64" Name="wall variable 0" format="ascii">
0 0 0 0 0 0 0 0 
</DataArray>
<DataArray type="Float64" Name="wall variable 1" format="ascii">
0 0 0 0 0 0 0 0 
</DataArray>
</CellData>
</Piece>
</UnstructuredGrid>
</VTKFile>
