<VTKFile type="UnstructuredGrid" version="0.1">
<UnstructuredGrid>
<Piece  NumberOfPoints="      14" NumberOfCells="       8">
<Points>
<DataArray type="Float64" NumberOfComponents="3" format="ascii">
-0.644283 -0.644355 0 
0.644284 -0.644356 0 
-0.644284 0.644356 0 
0.644283 0.644355 0 
0.00197765 -0.644715 0 
-0.00197765 0.644715 0 
-0.612066 -0.579985 0.0
-0.0304312 -0.58031 0.0
-0.033991 0.580178 0.0
-0.612067 0.579855 0.0
0.033991 -0.580178 0.0
0.612067 -0.579855 0.0
0.612066 0.579985 0.0
0.0304312 0.58031 0.0
</DataArray>
</Points>
<Cells>
<DataArray type="Int32" Name="connectivity" format="ascii">
0 4 7 6 4 5 8 7 5 2 9 8 2 0 6 9 4 1 11 10 1 3 12 11 3 5 13 12 5 4 10 13 
</DataArray>
<DataArray type="Int32" Name="offsets" format="ascii">
4 8 12 16 20 24 28 32 
</DataArray>
<DataArray type="UInt8" Name="types" format="ascii">
7 7 7 7 7 7 7 7 
</DataArray>
</Cells>
<CellData Scalars="wall variable 0">
<DataArray type="Float64" Name="wall length" format="ascii">
0.592136 1.18148 0.588513 1.18073 0.588513 1.18073 0.592136 1.18148 
</DataArray>
<DataArray type="Float64" Name="wall variable 0" format="ascii">
0 0 0 0 0 0 0 0 
</DataArray>
<DataArray type="Float64" Name="wall variable 1" format="ascii">
0 0 0 0 0 0 0 0 
</DataArray>
</CellData>
</Piece>
</UnstructuredGrid>
</VTKFile>
