<VTKFile type="UnstructuredGrid" version="0.1">
<UnstructuredGrid>
<Piece  NumberOfPoints="     238" NumberOfCells="      44">
<Points>
<DataArray type="Float64" NumberOfComponents="3" format="ascii">
-1.99435 -0.161006 0.0
-2.00188 -0.72842 0.0
-1.16468 -0.773373 0.0
-1.10877 -0.0842449 0.0
-1.86712 0.00679452 0.0
-0.0402416 -2.2161 0.0
0.00179364 -2.70764 0.0
0.808481 -2.73163 0.0
0.800309 -2.16953 0.0
0.149319 0.295443 0.0
0.0375131 0.774102 0.0
-0.862017 0.716309 0.0
-0.889666 0.0637337 0.0
-0.210648 -0.0400616 0.0
0.164792 0.922544 0.0
0.138954 0.796919 0.0
0.25076 0.31826 0.0
0.938148 0.199834 0.0
1.01366 0.253045 0.0
1.02718 0.911483 0.0
0.998906 0.983849 0.0
1.8502 -2.1948 0.0
1.70286 -2.67211 0.0
2.76466 -2.54828 0.0
2.91788 -2.18511 0.0
1.90402 -2.04618 0.0
-1.96047 0.0744496 0.0
-2.0464 0.641275 0.0
-3.03426 0.613872 0.0
-2.993 -0.0291815 0.0
-2.08769 -0.0933507 0.0
-2.10219 -0.73559 0.0
-2.09466 -0.168175 0.0
-2.99997 -0.104006 0.0
-3.04578 -0.788211 0.0
-2.12442 -0.794737 0.0
3.02065 0.0533342 0.0
3.07074 0.644709 0.0
2.06239 0.724899 0.0
1.92056 0.199022 0.0
2.0275 0.0385844 0.0
-0.0572043 -0.896516 0.0
0.0439433 -1.50206 0.0
0.799991 -1.5095 0.0
0.874165 -1.45666 0.0
0.927481 -0.757584 0.0
0.886776 -0.686098 0.0
-0.00832725 -0.732703 0.0
-1.7244 -2.65325 0.0
-1.02911 -2.71382 0.0
-1.02428 -1.73432 0.0
-1.14246 -1.66015 0.0
-1.8342 -1.6866 0.0
-1.8562 -2.05405 0.0
0.0909881 1.71418 0.0
0.0486289 2.12206 0.0
-0.801941 2.06932 0.0
-0.799773 2.01147 0.0
-0.77821 1.61118 0.0
-0.0265032 1.61652 0.0
0.943778 2.63942 0.0
0.0928723 2.59137 0.0
0.138175 2.15562 0.0
0.180535 1.74774 0.0
0.927585 1.7542 0.0
2.98214 -1.45513 0.0
3.05582 -0.765739 0.0
2.05562 -0.765769 0.0
1.98364 -1.35711 0.0
-1.8778 1.53592 0.0
-1.91562 1.90917 0.0
-2.90106 2.04277 0.0
-2.94824 1.42929 0.0
-1.97145 1.42774 0.0
2.99784 1.42809 0.0
2.9456 2.02902 0.0
1.96481 1.9436 0.0
1.9029 1.65657 0.0
2.04127 1.48083 0.0
-2.90971 -2.2052 0.0
-2.77882 -2.55947 0.0
-1.81505 -2.67423 0.0
-1.94685 -2.07504 0.0
1.94836 -0.766257 0.0
1.92308 -0.704345 0.0
1.02865 -0.757124 0.0
0.97533 -1.4562 0.0
1.77707 -1.46791 0.0
1.87638 -1.3576 0.0
-0.0579 -1.5215 0.0
-0.159048 -0.915956 0.0
-1.02395 -0.948696 0.0
-1.05796 -1.57268 0.0
-0.939783 -1.64685 0.0
-0.192743 -1.63902 0.0
-0.998978 0.860331 0.0
-0.959671 1.49297 0.0
-1.77736 1.48217 0.0
-1.87101 1.37399 0.0
-1.90453 0.831848 0.0
1.1162 0.907893 0.0
1.10269 0.249455 0.0
1.8214 0.22034 0.0
1.96323 0.746217 0.0
1.94071 0.896701 0.0
0.891021 -1.58132 0.0
0.909513 -2.03994 0.0
1.75846 -2.14021 0.0
1.81227 -1.99159 0.0
1.76693 -1.54018 0.0
0.965195 -1.52847 0.0
-0.877907 1.60542 0.0
-0.899471 2.00571 0.0
-1.76518 2.08395 0.0
-1.80749 1.91895 0.0
-1.76967 1.5457 0.0
-0.951985 1.5565 0.0
-0.941455 -2.72027 0.0
-0.0922829 -2.68524 0.0
-0.134318 -2.1937 0.0
-0.189585 -1.73294 0.0
-0.936625 -1.74077 0.0
1.79654 2.57959 0.0
1.03219 2.63532 0.0
1.01599 1.75011 0.0
1.08961 1.70414 0.0
1.79689 1.69963 0.0
1.8588 1.98666 0.0
-2.04666 0.71604 0.0
-2.0116 0.818482 0.0
-1.97808 1.36062 0.0
-2.95487 1.36217 0.0
-3.03452 0.688637 0.0
3.07525 0.715206 0.0
3.0043 1.36288 0.0
2.04772 1.41562 0.0
2.04438 0.94588 0.0
2.0669 0.795396 0.0
3.05645 -0.69316 0.0
3.02423 -0.0192175 0.0
2.03108 -0.0339673 0.0
2.03097 -0.631277 0.0
2.05624 -0.69319 0.0
-0.129605 -0.101334 0.0
-0.0114441 -0.645805 0.0
0.883659 -0.5992 0.0
0.91775 0.115744 0.0
0.230362 0.23417 0.0
1.87452 -1.53485 0.0
1.91986 -1.98627 0.0
2.93373 -2.1252 0.0
2.97234 -1.52256 0.0
1.97384 -1.42455 0.0
1.92229 -0.620719 0.0
1.9224 -0.0234094 0.0
1.81546 0.137029 0.0
1.09675 0.166143 0.0
1.02124 0.112932 0.0
0.987148 -0.602012 0.0
1.02785 -0.673498 0.0
-2.05014 -1.481 0.0
-2.12273 -0.865961 0.0
-3.0441 -0.859435 0.0
-2.97547 -1.50207 0.0
0.0335187 0.853074 0.0
0.0593561 0.978699 0.0
-0.0342139 1.54829 0.0
-0.785921 1.54295 0.0
-0.859998 1.49403 0.0
-0.899305 0.861394 0.0
-0.866012 0.795281 0.0
-0.163497 -0.834171 0.0
-0.11462 -0.670358 0.0
-0.23278 -0.125887 0.0
-0.911799 -0.0220917 0.0
-1.01377 -0.0921941 0.0
-1.06968 -0.781322 0.0
-1.0284 -0.86691 0.0
-0.965527 0.719069 0.0
-0.998821 0.785181 0.0
-1.90437 0.756698 0.0
-1.93943 0.654256 0.0
-1.8535 0.0874301 0.0
-1.09515 -0.00360932 0.0
-0.993176 0.0664931 0.0
-2.00209 -0.808432 0.0
-2.02432 -0.867579 0.0
-1.95174 -1.48261 0.0
-1.84937 -1.58942 0.0
-1.15762 -1.56296 0.0
-1.12361 -0.938973 0.0
-1.16489 -0.853385 0.0
-1.8997 1.96619 0.0
-1.85739 2.1312 0.0
-1.74431 2.57394 0.0
-2.73818 2.461 0.0
-2.88514 2.09979 0.0
0.0638108 1.56572 0.0
0.157381 0.996126 0.0
0.991495 1.05743 0.0
1.00196 1.62387 0.0
0.928352 1.66984 0.0
0.181302 1.66338 0.0
2.93344 2.08561 0.0
2.78081 2.49177 0.0
1.89039 2.59312 0.0
1.95265 2.00018 0.0
-2.96731 -1.56638 0.0
-2.92447 -2.14971 0.0
-1.96161 -2.01955 0.0
-1.93962 -1.6521 0.0
-2.04198 -1.5453 0.0
1.08791 1.05137 0.0
1.11618 0.979 0.0
1.94069 0.967808 0.0
1.94403 1.43755 0.0
1.80566 1.61329 0.0
1.09838 1.61781 0.0
0.900464 -2.10002 0.0
0.886898 -2.16566 0.0
0.89507 -2.72777 0.0
1.60206 -2.67761 0.0
1.74941 -2.2003 0.0
-0.0995981 -1.69584 0.0
-0.0443313 -2.1566 0.0
0.79622 -2.11003 0.0
0.809785 -2.04438 0.0
0.791293 -1.58576 0.0
0.0352452 -1.57832 0.0
-0.892761 2.06036 0.0
-0.894929 2.11821 0.0
-0.915591 2.63631 0.0
-1.64539 2.58135 0.0
-1.75847 2.1386 0.0
0.0432606 2.17487 0.0
-0.00204245 2.61063 0.0
-0.827971 2.64024 0.0
-0.807309 2.12214 0.0
</DataArray>
</Points>
<Cells>
<DataArray type="Int32" Name="connectivity" format="ascii">
0 1 2 3 4 
5 6 7 8 
9 10 11 12 13 
14 15 16 17 18 19 20 
21 22 23 24 25 
26 27 28 29 30 
31 32 33 34 35 
36 37 38 39 40 
41 42 43 44 45 46 47 
48 49 50 51 52 53 
54 55 56 57 58 59 
60 61 62 63 64 
65 66 67 68 
69 70 71 72 73 
74 75 76 77 78 
79 80 81 82 
83 84 85 86 87 88 
89 90 91 92 93 94 
95 96 97 98 99 
100 101 102 103 104 
105 106 107 108 109 110 
111 112 113 114 115 116 
117 118 119 120 121 
122 123 124 125 126 127 
128 129 130 131 132 
133 134 135 136 137 
138 139 140 141 142 
143 144 145 146 147 
148 149 150 151 152 
153 154 155 156 157 158 159 
160 161 162 163 
164 165 166 167 168 169 170 
171 172 173 174 175 176 177 
178 179 180 181 182 183 184 
185 186 187 188 189 190 191 
192 193 194 195 196 
197 198 199 200 201 202 
203 204 205 206 
207 208 209 210 211 
212 213 214 215 216 217 
218 219 220 221 222 
223 224 225 226 227 228 
229 230 231 232 233 
234 235 236 237 
</DataArray>
<DataArray type="Int32" Name="offsets" format="ascii">
5 9 14 21 26 31 36 41 48 54 60 65 69 74 79 83 89 95 100 105 111 117 122 128 133 138 143 148 153 160 164 171 178 185 192 197 203 207 212 218 223 229 234 238 
</DataArray>
<DataArray type="UInt8" Name="types" format="ascii">
7 7 7 7 7 7 7 7 7 7 7 7 7 7 7 7 7 7 7 7 7 7 7 7 7 7 7 7 7 7 7 7 7 7 7 7 7 7 7 7 7 7 7 7 
</DataArray>
</Cells>
<CellData Scalars="cell variable 4" Vectors="cell vector">
<DataArray type="Float64" NumberOfComponents="3" Name="cell vector" format="ascii">
0 1 1
0 1 1
0 1 1
0 1 1
0 1 1
0 1 1
0 1 1
0 1 1
0 1 1
0 1 1
0 1 1
0 1 1
0 1 1
0 1 1
0 1 1
0 1 1
0 1 1
0 1 1
0 1 1
0 1 1
0 1 1
0 1 1
0 1 1
0 1 1
0 1 1
0 1 1
0 1 1
0 1 1
0 1 1
0 1 1
0 1 1
0 1 1
0 1 1
0 1 1
0 1 1
0 1 1
0 1 1
0 1 1
0 1 1
0 1 1
0 1 1
0 1 1
0 1 1
0 1 1
</DataArray>
<DataArray type="Float64" Name="cell vector length" format="ascii">
0.0166331 0.0158734 0.0162357 0.0142376 0.0335486 0.0314001 0.0298815 0.0316085 0.0165572 0.0312187 0.0151643 0.0283555 0.0312366 0.0315349 0.030528 0.0301485 0.0162655 0.017068 0.0149258 0.0140381 0.0168507 0.0162469 0.0310163 0.0294702 0.0312399 0.0310082 0.0311773 0.0172005 0.0343024 0.0169273 0.0300517 0.0156341 0.0163066 0.016314 0.0170607 0.0308792 0.014818 0.0295468 0.0307427 0.0142565 0.0160336 0.0161594 0.0155161 0.0147812 
</DataArray>
<DataArray type="Float64" Name="cell variable 4" format="ascii">
0 0 0 0 0 0 0 0 0 0 0 0 0 0 0 0 0 0 0 0 0 0 0 0 0 0 0 0 0 0 0 0 0 0 0 0 0 0 0 0 0 0 0 0 
</DataArray>
<DataArray type="Float64" Name="cell variable 5" format="ascii">
0 0 0 0 0 0 0 0 0 0 0 0 0 0 0 0 0 0 0 0 0 0 0 0 0 0 0 0 0 0 0 0 0 0 0 0 0 0 0 0 0 0 0 0 
</DataArray>
<DataArray type="Float64" Name="cell variable 6" format="ascii">
0 0 0 0 0 0 0 0 0 0 0 0 0 0 0 0 0 0 0 0 0 0 0 0 0 0 0 0 0 0 0 0 0 0 0 0 0 0 0 0 0 0 0 0 
</DataArray>
<DataArray type="Float64" Name="cell variable 7" format="ascii">
0 0 0 0 0 0 0 0 0 0 0 0 0 0 0 0 0 0 0 0 0 0 0 0 0 0 0 0 0 0 0 0 0 0 0 0 0 0 0 0 0 0 0 0 
</DataArray>
<DataArray type="Float64" Name="cell variable 8" format="ascii">
0 0 0 0 0 0 0 0 0 0 0 0 0 0 0 0 0 0 0 0 0 0 0 0 0 0 0 0 0 0 0 0 0 0 0 0 0 0 0 0 0 0 0 0 
</DataArray>
</CellData>
</Piece>
</UnstructuredGrid>
</VTKFile>
