<VTKFile type="UnstructuredGrid" version="0.1">
<UnstructuredGrid>
<Piece  NumberOfPoints="     158" NumberOfCells="      30">
<Points>
<DataArray type="Float64" NumberOfComponents="3" format="ascii">
-1.6175 -1.14238 0.0
-1.06932 -1.13205 0.0
-1.02287 -0.0176588 0.0
-1.61616 0.0444438 0.0
-1.7142 -0.0784268 0.0
-1.69461 -1.06142 0.0
0.438768 -1.1981 0.0
-0.140493 -1.19466 0.0
-0.240475 -1.28202 0.0
-0.165839 -2.1065 0.0
0.462114 -2.14628 0.0
-0.196318 1.25615 0.0
-0.774896 1.25071 0.0
-0.831879 1.21849 0.0
-0.854645 0.143949 0.0
-0.333664 0.0804749 0.0
-0.0554084 0.323858 0.0
0.547232 0.256383 0.0
0.606175 0.285417 0.0
0.606965 1.32142 0.0
0.547415 1.34779 0.0
-0.0354713 1.34989 0.0
-0.119768 1.27285 0.0
0.0211423 0.340559 0.0
1.24351 -1.53175 0.0
1.16684 -2.10611 0.0
2.06235 -2.00099 0.0
2.14607 -1.66945 0.0
-1.6932 0.129254 0.0
-1.73101 0.566998 0.0
-2.60774 0.55459 0.0
-2.57244 0.0516919 0.0
-1.79125 0.00638301 0.0
-1.77581 -1.06331 0.0
-1.7954 -0.0803108 0.0
-2.57659 -0.0350019 0.0
-2.58223 -1.09254 0.0
2.24875 0.112471 0.0
2.28477 0.575361 0.0
1.38184 0.636238 0.0
1.31194 0.221025 0.0
1.39452 0.105354 0.0
-0.209404 -0.492596 0.0
-0.136025 -1.10732 0.0
0.443236 -1.11077 0.0
0.500273 -1.07756 0.0
0.51838 -0.520311 0.0
0.518193 -0.458113 0.0
-1.52981 -2.09766 0.0
-0.97372 -2.15284 0.0
-0.963332 -1.29013 0.0
-1.05836 -1.24469 0.0
-1.60654 -1.25502 0.0
-0.773914 1.36148 0.0
-0.195337 1.36692 0.0
-0.11104 1.44396 0.0
-0.177646 2.17589 0.0
-0.823151 2.21978 0.0
0.567728 2.22334 0.0
-0.105719 2.18126 0.0
-0.039114 1.44933 0.0
0.543772 1.44723 0.0
2.239 -1.07849 0.0
2.27732 -0.529496 0.0
1.40389 -0.517921 0.0
1.37317 -0.982734 0.0
-1.70574 1.21386 0.0
-1.63332 1.2932 0.0
-1.55609 2.15105 0.0
-2.39783 2.05706 0.0
-2.55304 1.2273 0.0
2.25151 1.22415 0.0
2.09021 2.085 0.0
1.33283 2.16547 0.0
1.31366 1.39341 0.0
1.41765 1.2585 0.0
-1.6868 -1.24804 0.0
-1.7639 -1.16708 0.0
-2.57033 -1.19631 0.0
-2.43162 -1.99719 0.0
-1.61006 -2.09067 0.0
1.31477 -0.517956 0.0
1.31308 -0.46721 0.0
0.595721 -0.519717 0.0
0.577614 -1.07697 0.0
1.20758 -1.06335 0.0
1.28405 -0.982769 0.0
-0.994463 -1.13898 0.0
-0.899435 -1.18442 0.0
-0.315762 -1.17837 0.0
-0.215779 -1.091 0.0
-0.289158 -0.476273 0.0
-0.347862 -0.0489225 0.0
-0.868843 0.0145515 0.0
-0.948016 -0.0245809 0.0
-0.910473 1.21854 0.0
-1.55742 1.19489 0.0
-1.62984 1.11555 0.0
-1.64351 0.604713 0.0
-1.6057 0.166969 0.0
-1.01241 0.104866 0.0
-0.93324 0.143998 0.0
0.676832 0.28169 0.0
1.231 0.265488 0.0
1.30089 0.680701 0.0
1.34169 1.17159 0.0
1.2377 1.30651 0.0
0.677622 1.3177 0.0
0.566481 -1.16091 0.0
0.509444 -1.19412 0.0
0.53279 -2.1423 0.0
1.08862 -2.08544 0.0
1.16529 -1.51109 0.0
1.19645 -1.1473 0.0
-0.90221 1.32487 0.0
-0.845227 1.35708 0.0
-0.894464 2.21538 0.0
-1.47192 2.15907 0.0
-1.54915 1.30121 0.0
-0.906103 -2.15736 0.0
-0.237406 -2.11308 0.0
-0.312043 -1.2886 0.0
-0.895716 -1.29465 0.0
1.25129 2.17894 0.0
0.636443 2.22055 0.0
0.612487 1.44444 0.0
0.672037 1.41807 0.0
1.23211 1.40688 0.0
-1.73245 0.625311 0.0
-1.71879 1.13615 0.0
-2.56608 1.14959 0.0
-2.60918 0.612903 0.0
2.28954 0.630487 0.0
2.26126 1.14791 0.0
1.4274 1.18226 0.0
1.38661 0.691364 0.0
2.27732 -0.472537 0.0
2.25261 0.0558272 0.0
1.39839 0.04871 0.0
1.40221 -0.410216 0.0
1.40389 -0.460962 0.0
-0.270649 0.00240794 0.0
-0.211944 -0.424942 0.0
0.515653 -0.390459 0.0
0.533697 0.161615 0.0
0.00760749 0.245791 0.0
1.28761 -1.11721 0.0
1.25645 -1.481 0.0
2.15902 -1.61869 0.0
2.22991 -1.13238 0.0
1.36408 -1.03662 0.0
1.31345 -0.402365 0.0
1.30964 0.0565607 0.0
1.22706 0.172232 0.0
0.672888 0.188434 0.0
0.613945 0.1594 0.0
0.595901 -0.392673 0.0
0.596088 -0.454872 0.0
</DataArray>
</Points>
<Cells>
<DataArray type="Int32" Name="connectivity" format="ascii">
0 1 2 3 4 5 
6 7 8 9 10 
11 12 13 14 15 16 
17 18 19 20 21 22 23 
24 25 26 27 
28 29 30 31 32 
33 34 35 36 
37 38 39 40 41 
42 43 44 45 46 47 
48 49 50 51 52 
53 54 55 56 57 
58 59 60 61 
62 63 64 65 
66 67 68 69 70 
71 72 73 74 75 
76 77 78 79 80 
81 82 83 84 85 86 
87 88 89 90 91 92 93 94 
95 96 97 98 99 100 101 
102 103 104 105 106 107 
108 109 110 111 112 113 
114 115 116 117 118 
119 120 121 122 
123 124 125 126 127 
128 129 130 131 
132 133 134 135 
136 137 138 139 140 
141 142 143 144 145 
146 147 148 149 150 
151 152 153 154 155 156 157 
</DataArray>
<DataArray type="Int32" Name="offsets" format="ascii">
6 11 17 24 28 33 37 42 48 53 58 62 66 71 76 81 87 95 102 108 114 119 123 128 132 136 141 146 151 158 
</DataArray>
<DataArray type="UInt8" Name="types" format="ascii">
7 7 7 7 7 7 7 7 7 7 7 7 7 7 7 7 7 7 7 7 7 7 7 7 7 7 7 7 7 7 
</DataArray>
</Cells>
<CellData Scalars="cell variable 4" Vectors="cell vector">
<DataArray type="Float64" NumberOfComponents="3" Name="cell vector" format="ascii">
0 1 1
0 1 1
0 1 1
0 1 1
0 1 1
0 1 1
0 1 1
0 1 1
0 1 1
0 1 1
0 1 1
0 1 1
0 1 1
0 1 1
0 1 1
0 1 1
0 1 1
0 1 1
0 1 1
0 1 1
0 1 1
0 1 1
0 1 1
0 1 1
0 1 1
0 1 1
0 1 1
0 1 1
0 1 1
0 1 1
</DataArray>
<DataArray type="Float64" Name="cell vector length" format="ascii">
0.0336938 0.0320328 0.0318698 0.0290556 0.0335486 0.0314001 0.0599332 0.0316085 0.0165572 0.0312187 0.0299455 0.0283555 0.0312366 0.0624141 0.0600748 0.0608911 0.0162655 0.0333746 0.0312398 0.0282946 0.0328843 0.031763 0.0310163 0.0294702 0.0312399 0.0310082 0.0311773 0.0172005 0.0343024 0.0169273 
</DataArray>
<DataArray type="Float64" Name="cell variable 4" format="ascii">
0 0 0 0 0 0 0 0 0 0 0 0 0 0 0 0 0 0 0 0 0 0 0 0 0 0 0 0 0 0 
</DataArray>
<DataArray type="Float64" Name="cell variable 5" format="ascii">
0 0 0 0 0 0 0 0 0 0 0 0 0 0 0 0 0 0 0 0 0 0 0 0 0 0 0 0 0 0 
</DataArray>
<DataArray type="Float64" Name="cell variable 6" format="ascii">
0 0 0 0 0 0 0 0 0 0 0 0 0 0 0 0 0 0 0 0 0 0 0 0 0 0 0 0 0 0 
</DataArray>
<DataArray type="Float64" Name="cell variable 7" format="ascii">
0 0 0 0 0 0 0 0 0 0 0 0 0 0 0 0 0 0 0 0 0 0 0 0 0 0 0 0 0 0 
</DataArray>
<DataArray type="Float64" Name="cell variable 8" format="ascii">
0 0 0 0 0 0 0 0 0 0 0 0 0 0 0 0 0 0 0 0 0 0 0 0 0 0 0 0 0 0 
</DataArray>
</CellData>
</Piece>
</UnstructuredGrid>
</VTKFile>
