<VTKFile type="UnstructuredGrid" version="0.1">
<UnstructuredGrid>
<Piece  NumberOfPoints="      38" NumberOfCells="       8">
<Points>
<DataArray type="Float64" NumberOfComponents="3" format="ascii">
-0.62407 -0.0436897 0.0
-0.675512 -0.0801751 0.0
-0.618416 -1.15152 0.0
-0.0356829 -1.11319 0.0
-0.0862661 -0.0601 0.0
0.0307496 -1.1088 0.0
0.581073 -1.1498 0.0
0.634518 -0.0471889 0.0
0.591394 -0.0132 0.0
0.0891587 0.0245286 0.0
-0.0198336 -0.0557093 0.0
-0.618984 0.073114 0.0
-0.08118 0.0567038 0.0
0.0278123 0.136942 0.0
-0.0236885 1.08196 0.0
-0.599157 1.12502 0.0
0.663995 1.13541 0.0
0.0421939 1.08786 0.0
0.0936948 0.142837 0.0
0.59593 0.105109 0.0
0.643788 -1.15348 0.0
1.16894 -1.09418 0.0
1.23912 -0.0527184 0.0
0.697233 -0.050859 0.0
-0.733019 0.0350054 0.0
-0.681577 0.0714908 0.0
-0.66175 1.1234 0.0
-1.15903 1.07297 0.0
-1.23029 0.0416731 0.0
-0.73505 -0.0811519 0.0
-1.23232 -0.0744842 0.0
-1.16887 -1.10379 0.0
-0.677954 -1.1525 0.0
1.17173 1.08289 0.0
0.723219 1.12805 0.0
0.655154 0.0977554 0.0
0.698278 0.0637665 0.0
1.24016 0.0619071 0.0
</DataArray>
</Points>
<Cells>
<DataArray type="Int32" Name="connectivity" format="ascii">
0 1 2 3 4 
5 6 7 8 9 10 
11 12 13 14 15 
16 17 18 19 
20 21 22 23 
24 25 26 27 28 
29 30 31 32 
33 34 35 36 37 
</DataArray>
<DataArray type="Int32" Name="offsets" format="ascii">
5 11 16 20 24 29 33 38 
</DataArray>
<DataArray type="UInt8" Name="types" format="ascii">
7 7 7 7 7 7 7 7 
</DataArray>
</Cells>
<CellData Scalars="cell variable 4" Vectors="cell vector">
<DataArray type="Float64" NumberOfComponents="3" Name="cell vector" format="ascii">
0 1 1
0 1 1
0 1 1
0 1 1
0 1 1
0 1 1
0 1 1
0 1 1
</DataArray>
<DataArray type="Float64" Name="cell vector length" format="ascii">
0.129303 0.131868 0.124818 0.115176 0.130265 0.125054 0.120824 0.122691 
</DataArray>
<DataArray type="Float64" Name="cell variable 4" format="ascii">
0 0 0 0 0 0 0 0 
</DataArray>
<DataArray type="Float64" Name="cell variable 5" format="ascii">
0 0 0 0 0 0 0 0 
</DataArray>
<DataArray type="Float64" Name="cell variable 6" format="ascii">
0 0 0 0 0 0 0 0 
</DataArray>
<DataArray type="Float64" Name="cell variable 7" format="ascii">
0 0 0 0 0 0 0 0 
</DataArray>
<DataArray type="Float64" Name="cell variable 8" format="ascii">
0 0 0 0 0 0 0 0 
</DataArray>
</CellData>
</Piece>
</UnstructuredGrid>
</VTKFile>
