<VTKFile type="UnstructuredGrid" version="0.1">
<UnstructuredGrid>
<Piece  NumberOfPoints="      28" NumberOfCells="      18">
<Points>
<DataArray type="Float64" NumberOfComponents="3" format="ascii">
-0.794218 -0.796588 0 
0.792665 -0.794106 0 
-0.79243 0.777647 0 
0.794292 0.780113 0 
0.000543029 -0.793335 0 
-0.00033822 0.776795 0 
-0.0259451 -0.00140885 0 
-0.848118 -0.0100771 0 
0.0249338 0.0644058 0 
0.848616 -0.00344496 0 
-0.0411717 -0.753811 0.0
-0.065011 -0.0410777 0.0
-0.804967 -0.0488792 0.0
-0.756457 -0.756739 0.0
0.0623308 0.0205337 0.0
0.0165399 -0.0386995 0.0
0.0403792 -0.751433 0.0
0.753289 -0.752127 0.0
0.803645 -0.040532 0.0
-0.0638992 0.0367651 0.0
-0.0181082 0.0959983 0.0
-0.040853 0.737148 0.0
-0.753736 0.737915 0.0
-0.803855 0.0289636 0.0
0.042026 0.739342 0.0
0.0647708 0.0981917 0.0
0.806085 0.037126 0.0
0.757193 0.742328 0.0
</DataArray>
</Points>
<Cells>
<DataArray type="Int32" Name="connectivity" format="ascii">
4 6 11 10 6 7 12 11 7 0 13 12 0 4 10 13 8 6 15 14 6 4 16 15 4 1 17 16 1 9 18 17 9 8 14 18 6 8 20 19 8 5 21 20 5 2 22 21 2 7 23 22 7 6 19 23 5 8 25 24 8 9 26 25 9 3 27 26 3 5 24 27 
</DataArray>
<DataArray type="Int32" Name="offsets" format="ascii">
4 8 12 16 20 24 28 32 36 40 44 48 52 56 60 64 68 72 
</DataArray>
<DataArray type="UInt8" Name="types" format="ascii">
7 7 7 7 7 7 7 7 7 7 7 7 7 7 7 7 7 7 
</DataArray>
</Cells>
<CellData Scalars="wall variable 0">
<DataArray type="Float64" Name="wall length" format="ascii">
0.71505 0.753511 0.71312 0.716877 0.0729515 0.71505 0.713221 0.715607 0.757338 0.0729515 0.643864 0.713216 0.714525 0.753511 0.643864 0.757338 0.71205 0.716835 
</DataArray>
<DataArray type="Float64" Name="wall variable 0" format="ascii">
0 0 0 0 0 0 0 0 0 0 0 0 0 0 0 0 0 0 
</DataArray>
<DataArray type="Float64" Name="wall variable 1" format="ascii">
0 0 0 0 0 0 0 0 0 0 0 0 0 0 0 0 0 0 
</DataArray>
</CellData>
</Piece>
</UnstructuredGrid>
</VTKFile>
