<VTKFile type="UnstructuredGrid" version="0.1">
<UnstructuredGrid>
<Piece  NumberOfPoints="      35" NumberOfCells="      23">
<Points>
<DataArray type="Float64" NumberOfComponents="3" format="ascii">
-1.05082 -0.88572 0 
0.881286 -0.876107 0 
-1.04187 1.01045 0 
0.889445 1.02016 0 
-0.0851005 -0.879684 0 
-0.0756353 1.00946 0 
-0.119052 0.0739472 0 
-1.10663 0.0622487 0 
-0.0446264 0.152137 0 
0.946041 0.0804883 0 
0.385215 -0.885889 0 
0.421744 0.118508 0 
-0.135592 -0.832266 0.0
-0.166149 0.0260022 0.0
-1.05497 0.0154735 0.0
-1.00474 -0.837698 0.0
-0.0615648 -0.828018 0.0
0.361719 -0.833602 0.0
0.394595 0.0703547 0.0
-0.025138 0.100621 0.0
-0.0921213 0.0302501 0.0
-0.164082 0.119852 0.0
-0.097099 0.190223 0.0
-0.125007 0.961813 0.0
-0.994614 0.962703 0.0
-1.05291 0.109324 0.0
-0.0244424 0.964883 0.0
0.0034657 0.193293 0.0
0.423199 0.163027 0.0
0.895066 0.12881 0.0
0.84413 0.974518 0.0
0.412372 -0.835878 0.0
0.858836 -0.827075 0.0
0.917115 0.033861 0.0
0.445248 0.0680786 0.0
</DataArray>
</Points>
<Cells>
<DataArray type="Int32" Name="connectivity" format="ascii">
4 6 13 12 6 7 14 13 7 0 15 14 0 4 12 15 4 10 17 16 10 11 18 17 11 8 19 18 8 6 20 19 6 4 16 20 6 8 22 21 8 5 23 22 5 2 24 23 2 7 25 24 7 6 21 25 5 8 27 26 8 11 28 27 11 9 29 28 9 3 30 29 3 5 26 30 10 1 32 31 1 9 33 32 9 11 34 33 11 10 31 34 
</DataArray>
<DataArray type="Int32" Name="offsets" format="ascii">
4 8 12 16 20 24 28 32 36 40 44 48 52 56 60 64 68 72 76 80 84 88 92 
</DataArray>
<DataArray type="UInt8" Name="types" format="ascii">
7 7 7 7 7 7 7 7 7 7 7 7 7 7 7 7 7 7 7 7 7 7 7 
</DataArray>
</Cells>
<CellData Scalars="wall variable 0">
<DataArray type="Float64" Name="wall length" format="ascii">
0.853218 0.887096 0.849387 0.859805 0.414997 0.991992 0.416761 0.0926826 0.853218 0.0926826 0.767467 0.858528 0.850461 0.887096 0.767467 0.416761 0.475172 0.844337 0.859598 0.443628 0.85555 0.475172 0.991992 
</DataArray>
<DataArray type="Float64" Name="wall variable 0" format="ascii">
0 0 0 0 0 0 0 0 0 0 0 0 0 0 0 0 0 0 0 0 0 0 0 
</DataArray>
<DataArray type="Float64" Name="wall variable 1" format="ascii">
0 0 0 0 0 0 0 0 0 0 0 0 0 0 0 0 0 0 0 0 0 0 0 
</DataArray>
</CellData>
</Piece>
</UnstructuredGrid>
</VTKFile>
