<VTKFile type="UnstructuredGrid" version="0.1">
<UnstructuredGrid>
<Piece  NumberOfPoints="     169" NumberOfCells="     121">
<Points>
<DataArray type="Float64" NumberOfComponents="3" format="ascii">
-2.03173 -1.83953 0 
2.07487 -1.82296 0 
-2.00385 1.90041 0 
2.08937 1.92458 0 
0.00936909 -1.9258 0 
0.050814 1.98866 0 
-0.0931556 0.0196341 0 
-2.15629 0.0241146 0 
0.167505 0.252615 0 
2.23165 0.0749796 0 
1.16317 -1.92088 0 
1.353 0.070818 0 
-1.25645 0.0999175 0 
-1.14528 1.98657 0 
-1.35162 -0.0162772 0 
-1.19217 -1.92662 0 
1.31716 2.00242 0 
1.27364 0.179138 0 
0.0293049 -0.999744 0 
1.26508 -0.958183 0 
-1.26364 -1.06241 0 
-0.0616684 -1.08516 0 
0.0357439 1.16457 0 
-1.21754 1.10615 0 
0.111261 1.2415 0 
1.29223 1.20635 0 
1.3369 -0.879909 0 
2.23164 -0.990212 0 
-1.28445 1.02752 0 
-2.16027 1.05299 0 
2.25054 1.04419 0 
1.38615 1.06931 0 
-1.33584 -0.98207 0 
-2.17264 -1.0223 0 
0.644121 -0.971195 0 
0.674406 0.176924 0 
-0.72357 -1.05534 0 
-0.675547 0.0447795 0 
-0.579166 1.12483 0 
-0.596035 0.0694897 0 
0.733749 0.194384 0 
0.737308 1.22626 0 
0.586813 -0.995816 0 
0.617258 -1.97018 0 
-0.520364 1.14408 0 
-0.57619 2.01844 0 
-0.641108 -1.9415 0 
-0.624493 -1.06956 0 
-1.23941 -1.00451 0.0
-0.753349 -0.998146 0.0
-0.710127 -0.0080406 0.0
-1.23294 0.0415836 0.0
-1.3186 -0.0629916 0.0
-1.30439 -0.932205 0.0
0.557217 -1.04322 0.0
0.0554592 -1.04676 0.0
-0.0264168 -1.12363 0.0
0.037517 -1.88021 0.0
0.584617 -1.92015 0.0
0.00786816 1.10728 0.0
-0.492629 1.08884 0.0
-0.545551 1.07152 0.0
-0.560733 0.121708 0.0
-0.108141 0.0768376 0.0
0.126453 0.28652 0.0
0.648965 0.233312 0.0
0.702373 0.249026 0.0
0.705576 1.17771 0.0
0.142134 1.19143 0.0
0.074169 1.1222 0.0
0.192754 0.301434 0.0
1.37024 -0.931567 0.0
1.30559 -1.00201 0.0
1.21387 -1.86845 0.0
2.03441 -1.78031 0.0
2.1755 -1.03084 0.0
-1.30229 0.142063 0.0
-1.32749 0.97691 0.0
-2.11572 0.999828 0.0
-2.11214 0.0738404 0.0
-1.38794 0.0374878 0.0
-1.37822 -0.934104 0.0
-1.39242 -0.0648907 0.0
-2.11662 -0.0285381 0.0
-2.13133 -0.97031 0.0
2.18666 0.12327 0.0
2.20365 0.995559 0.0
1.4257 1.01817 0.0
1.32444 0.217012 0.0
1.39587 0.119524 0.0
0.0577355 -0.937703 0.0
0.559493 -0.934168 0.0
0.61107 -0.912009 0.0
0.638326 0.121298 0.0
0.182116 0.18942 0.0
-0.052479 -0.020263 0.0
-1.16592 -1.88254 0.0
-0.669965 -1.89593 0.0
-0.655012 -1.11119 0.0
-0.744181 -1.09839 0.0
-1.23024 -1.10475 0.0
-0.492043 1.1877 0.0
0.00845374 1.20615 0.0
0.0764191 1.27538 0.0
0.0220169 1.94782 0.0
-0.542287 1.97462 0.0
0.115662 1.9513 0.0
0.170064 1.27886 0.0
0.733506 1.26514 0.0
1.23294 1.24722 0.0
1.25537 1.96368 0.0
1.39736 0.0204173 0.0
1.38287 -0.835237 0.0
2.18814 -0.934509 0.0
2.18815 0.0241628 0.0
-1.3186 1.0733 0.0
-1.25838 1.14406 0.0
-1.19335 1.93644 0.0
-1.96605 1.8589 0.0
-2.10683 1.09622 0.0
2.19909 1.08951 0.0
2.05404 1.88186 0.0
1.35905 1.95192 0.0
1.33662 1.23545 0.0
1.42114 1.11212 0.0
-1.30307 -1.09986 0.0
-1.36806 -1.02756 0.0
-2.12118 -1.06377 0.0
-1.99436 -1.79928 0.0
-1.23875 -1.87765 0.0
0.679508 -0.91325 0.0
1.23837 -0.901539 0.0
1.30301 -0.831093 0.0
1.3175 0.024562 0.0
1.24607 0.12205 0.0
0.760173 0.135771 0.0
0.706764 0.120057 0.0
-0.687785 -1.00357 0.0
-0.598616 -1.01637 0.0
-0.0920733 -1.03041 0.0
-0.0101974 -0.953535 0.0
-0.120412 -0.0360949 0.0
-0.573004 0.00877509 0.0
-0.644564 -0.013464 0.0
-0.613693 1.07202 0.0
-1.18823 1.05521 0.0
-1.24845 0.984445 0.0
-1.22325 0.149598 0.0
-0.700435 0.0999742 0.0
-0.628875 0.122213 0.0
0.76377 0.246259 0.0
1.24967 0.232538 0.0
1.35093 1.03369 0.0
1.2664 1.15703 0.0
0.766973 1.17495 0.0
0.670378 -1.01788 0.0
0.618801 -1.04004 0.0
0.646202 -1.91697 0.0
1.13752 -1.87261 0.0
1.22924 -1.00617 0.0
-0.60765 1.16683 0.0
-0.554727 1.18415 0.0
-0.604971 1.97107 0.0
-1.11716 1.94239 0.0
-1.18218 1.15001 0.0
-0.610097 -1.89894 0.0
-0.0246669 -1.88482 0.0
-0.0886006 -1.12824 0.0
-0.595143 -1.1142 0.0
</DataArray>
</Points>
<Cells>
<DataArray type="Int32" Name="connectivity" format="ascii">
20 36 49 48 36 37 50 49 37 12 51 50 12 14 52 51 14 32 53 52 32 20 48 53 42 18 55 54 18 21 56 55 21 4 57 56 4 43 58 57 43 42 54 58 22 44 60 59 44 38 61 60 38 39 62 61 39 6 63 62 6 8 64 63 8 22 59 64 35 40 66 65 40 41 67 66 41 24 68 67 24 22 69 68 22 8 70 69 8 35 65 70 26 19 72 71 19 10 73 72 10 1 74 73 1 27 75 74 27 26 71 75 12 28 77 76 28 29 78 77 29 7 79 78 7 14 80 79 14 12 76 80 32 14 82 81 14 7 83 82 7 33 84 83 33 32 81 84 9 30 86 85 30 31 87 86 31 17 88 87 17 11 89 88 11 9 85 89 18 42 91 90 42 34 92 91 34 35 93 92 35 8 94 93 8 6 95 94 6 18 90 95 15 46 97 96 46 47 98 97 47 36 99 98 36 20 100 99 20 15 96 100 44 22 102 101 22 24 103 102 24 5 104 103 5 45 105 104 45 44 101 105 5 24 107 106 24 41 108 107 41 25 109 108 25 16 110 109 16 5 106 110 11 26 112 111 26 27 113 112 27 9 114 113 9 11 111 114 28 23 116 115 23 13 117 116 13 2 118 117 2 29 119 118 29 28 115 119 30 3 121 120 3 16 122 121 16 25 123 122 25 31 124 123 31 30 120 124 20 32 126 125 32 33 127 126 33 0 128 127 0 15 129 128 15 20 125 129 34 19 131 130 19 26 132 131 26 11 133 132 11 17 134 133 17 40 135 134 40 35 136 135 35 34 130 136 36 47 138 137 47 21 139 138 21 18 140 139 18 6 141 140 6 39 142 141 39 37 143 142 37 36 137 143 38 23 145 144 23 28 146 145 28 12 147 146 12 37 148 147 37 39 149 148 39 38 144 149 40 17 151 150 17 31 152 151 31 25 153 152 25 41 154 153 41 40 150 154 34 42 156 155 42 43 157 156 43 10 158 157 10 19 159 158 19 34 155 159 38 44 161 160 44 45 162 161 45 13 163 162 13 23 164 163 23 38 160 164 46 4 166 165 4 21 167 166 21 47 168 167 47 46 165 168 
</DataArray>
<DataArray type="Int32" Name="offsets" format="ascii">
4 8 12 16 20 24 28 32 36 40 44 48 52 56 60 64 68 72 76 80 84 88 92 96 100 104 108 112 116 120 124 128 132 136 140 144 148 152 156 160 164 168 172 176 180 184 188 192 196 200 204 208 212 216 220 224 228 232 236 240 244 248 252 256 260 264 268 272 276 280 284 288 292 296 300 304 308 312 316 320 324 328 332 336 340 344 348 352 356 360 364 368 372 376 380 384 388 392 396 400 404 408 412 416 420 424 428 432 436 440 444 448 452 456 460 464 468 472 476 480 484 
</DataArray>
<DataArray type="UInt8" Name="types" format="ascii">
7 7 7 7 7 7 7 7 7 7 7 7 7 7 7 7 7 7 7 7 7 7 7 7 7 7 7 7 7 7 7 7 7 7 7 7 7 7 7 7 7 7 7 7 7 7 7 7 7 7 7 7 7 7 7 7 7 7 7 7 7 7 7 7 7 7 7 7 7 7 7 7 7 7 7 7 7 7 7 7 7 7 7 7 7 7 7 7 7 7 7 7 7 7 7 7 7 7 7 7 7 7 7 7 7 7 7 7 7 7 7 7 7 7 7 7 7 7 7 7 7 
</DataArray>
</Cells>
<CellData Scalars="wall variable 0">
<DataArray type="Float64" Name="wall length" format="ascii">
0.447774 0.991263 0.470538 0.116142 0.780605 0.0864444 0.448138 0.096694 0.730799 0.486425 0.907365 0.450061 0.049989 0.945174 0.397531 0.265128 0.739263 0.048427 0.950036 0.515982 0.0840651 0.739263 0.401314 0.0842988 0.845909 0.78461 0.726608 0.803313 0.745697 0.781381 0.843339 0.705409 0.116142 0.780605 0.705409 0.860909 0.751213 0.795476 0.774926 0.72417 0.102975 0.76897 0.448138 0.0498126 1.01304 0.401314 0.265128 0.82547 0.448309 0.85357 0.081847 0.447774 0.764027 0.450061 0.0840651 0.653127 0.50347 0.83733 0.653127 0.515982 0.4658 0.704623 1.0298 0.762707 0.803313 0.875964 0.76897 0.0822455 0.776401 0.739214 0.740778 0.781381 0.770355 0.664687 0.704623 0.134325 0.774926 0.0864444 0.751213 0.714008 0.724442 0.764027 0.512681 0.0842988 0.762707 0.102975 0.432293 0.048427 1.01304 0.081847 0.45824 0.096694 0.82547 0.397531 0.0654053 0.991263 0.529152 0.0822455 0.745697 0.470538 0.0654053 0.945174 0.432293 0.72417 0.134325 0.4658 0.950036 0.0498126 0.907365 0.444063 0.845909 0.512681 0.049989 0.83733 0.462992 0.776401 0.529152 0.52424 0.730799 0.45824 0.85357 
</DataArray>
<DataArray type="Float64" Name="wall variable 0" format="ascii">
0 0 0 0 0 0 0 0 0 0 0 0 0 0 0 0 0 0 0 0 0 0 0 0 0 0 0 0 0 0 0 0 0 0 0 0 0 0 0 0 0 0 0 0 0 0 0 0 0 0 0 0 0 0 0 0 0 0 0 0 0 0 0 0 0 0 0 0 0 0 0 0 0 0 0 0 0 0 0 0 0 0 0 0 0 0 0 0 0 0 0 0 0 0 0 0 0 0 0 0 0 0 0 0 0 0 0 0 0 0 0 0 0 0 0 0 0 0 0 0 0 
</DataArray>
<DataArray type="Float64" Name="wall variable 1" format="ascii">
0 0 0 0 0 0 0 0 0 0 0 0 0 0 0 0 0 0 0 0 0 0 0 0 0 0 0 0 0 0 0 0 0 0 0 0 0 0 0 0 0 0 0 0 0 0 0 0 0 0 0 0 0 0 0 0 0 0 0 0 0 0 0 0 0 0 0 0 0 0 0 0 0 0 0 0 0 0 0 0 0 0 0 0 0 0 0 0 0 0 0 0 0 0 0 0 0 0 0 0 0 0 0 0 0 0 0 0 0 0 0 0 0 0 0 0 0 0 0 0 0 
</DataArray>
</CellData>
</Piece>
</UnstructuredGrid>
</VTKFile>
