<VTKFile type="UnstructuredGrid" version="0.1">
<UnstructuredGrid>
<Piece  NumberOfPoints="      80" NumberOfCells="      56">
<Points>
<DataArray type="Float64" NumberOfComponents="3" format="ascii">
-1.35302 -1.26498 0 
1.4198 -1.25329 0 
-1.33834 1.34349 0 
1.42579 1.35942 0 
0.0306056 -1.29175 0 
0.0469644 1.36554 0 
-0.0335879 0.048315 0 
-1.43104 0.0372146 0 
0.115947 0.164684 0 
1.51053 0.0666569 0 
0.760405 -1.32036 0 
0.844049 0.0679653 0 
-0.75435 0.0791144 0 
-0.714465 1.3989 0 
-0.819507 0.0241806 0 
-0.739268 -1.31955 0 
0.864042 1.40914 0 
0.789986 0.119021 0 
0.0128798 -0.588584 0 
0.81501 -0.58433 0 
-0.789611 -0.650683 0 
0.00272939 -0.660542 0 
0.0784173 0.732232 0 
-0.743979 0.718192 0 
-0.778357 -0.00800391 0.0
-0.75145 -0.615381 0.0
-0.0383436 -0.624254 0.0
-0.0292082 -0.559492 0.0
-0.0710291 0.013717 0.0
-0.719715 0.0414365 0.0
0.0429478 -0.688488 0.0
0.0680365 -1.25657 0.0
0.724856 -1.28233 0.0
0.774 -0.619897 0.0
0.0520832 -0.623725 0.0
0.0718334 0.18766 0.0
0.0380565 0.698453 0.0
-0.7021 0.685817 0.0
-0.711435 0.110647 0.0
-0.0627482 0.0829277 0.0
0.823392 1.34667 0.0
0.0880216 1.30742 0.0
0.116329 0.737447 0.0
0.150106 0.226653 0.0
0.756741 0.185557 0.0
0.797726 -1.24912 0.0
1.39118 -1.18875 0.0
1.47284 -0.000798704 0.0
0.873006 0.000378848 0.0
0.84687 -0.586687 0.0
-0.84359 0.090998 0.0
-0.784949 0.140438 0.0
-0.775614 0.715608 0.0
-0.749052 1.32824 0.0
-1.31054 1.27838 0.0
-1.39397 0.102729 0.0
-0.84623 -0.0413044 0.0
-1.39661 -0.0295738 0.0
-1.32639 -1.20155 0.0
-0.774015 -1.25067 0.0
-0.819323 -0.648682 0.0
1.39774 1.29341 0.0
0.892167 1.33816 0.0
0.825517 0.177051 0.0
0.874173 0.131101 0.0
1.47401 0.129923 0.0
0.0104962 0.0214282 0.0
0.0523171 -0.551781 0.0
0.774234 -0.547952 0.0
0.800369 0.0391135 0.0
0.751713 0.0850634 0.0
0.145078 0.12616 0.0
-0.748426 -0.683543 0.0
-0.703118 -1.28553 0.0
-0.0102314 -1.2605 0.0
-0.0353201 -0.692416 0.0
0.036766 0.763964 0.0
0.00845837 1.33394 0.0
-0.676828 1.36396 0.0
-0.703391 0.751328 0.0
</DataArray>
</Points>
<Cells>
<DataArray type="Int32" Name="connectivity" format="ascii">
14 20 25 24 20 21 26 25 21 18 27 26 18 6 28 27 6 12 29 28 12 14 24 29 21 4 31 30 4 10 32 31 10 19 33 32 19 18 34 33 18 21 30 34 8 22 36 35 22 23 37 36 23 12 38 37 12 6 39 38 6 8 35 39 16 5 41 40 5 22 42 41 22 8 43 42 8 17 44 43 17 16 40 44 10 1 46 45 1 9 47 46 9 11 48 47 11 19 49 48 19 10 45 49 14 12 51 50 12 23 52 51 23 13 53 52 13 2 54 53 2 7 55 54 7 14 50 55 14 7 57 56 7 0 58 57 0 15 59 58 15 20 60 59 20 14 56 60 3 16 62 61 16 17 63 62 17 11 64 63 11 9 65 64 9 3 61 65 6 18 67 66 18 19 68 67 19 11 69 68 11 17 70 69 17 8 71 70 8 6 66 71 20 15 73 72 15 4 74 73 4 21 75 74 21 20 72 75 22 5 77 76 5 13 78 77 13 23 79 78 23 22 76 79 
</DataArray>
<DataArray type="Int32" Name="offsets" format="ascii">
4 8 12 16 20 24 28 32 36 40 44 48 52 56 60 64 68 72 76 80 84 88 92 96 100 104 108 112 116 120 124 128 132 136 140 144 148 152 156 160 164 168 172 176 180 184 188 192 196 200 204 208 212 216 220 224 
</DataArray>
<DataArray type="UInt8" Name="types" format="ascii">
7 7 7 7 7 7 7 7 7 7 7 7 7 7 7 7 7 7 7 7 7 7 7 7 7 7 7 7 7 7 7 7 7 7 7 7 7 7 7 7 7 7 7 7 7 7 7 7 7 7 7 7 7 7 7 7 
</DataArray>
</Cells>
<CellData Scalars="wall variable 0">
<DataArray type="Float64" Name="wall length" format="ascii">
0.586768 0.759778 0.06241 0.538547 0.59411 0.0698623 0.559144 0.608812 0.661693 0.755643 0.06241 0.483839 0.791054 0.554405 0.59411 0.14988 0.687618 0.557267 0.483839 0.55618 1.14561 0.582293 1.15017 0.597465 0.562398 0.661693 0.0698623 0.554405 0.61153 0.5508 1.13913 0.548399 0.548399 1.1362 0.543497 0.602046 0.586768 0.496712 1.14561 0.06092 0.597465 1.12768 0.538547 0.755643 0.562398 0.06092 0.55618 0.14988 0.602046 0.644212 0.559144 0.759778 0.557267 0.636635 0.61153 0.791054 
</DataArray>
<DataArray type="Float64" Name="wall variable 0" format="ascii">
0 0 0 0 0 0 0 0 0 0 0 0 0 0 0 0 0 0 0 0 0 0 0 0 0 0 0 0 0 0 0 0 0 0 0 0 0 0 0 0 0 0 0 0 0 0 0 0 0 0 0 0 0 0 0 0 
</DataArray>
<DataArray type="Float64" Name="wall variable 1" format="ascii">
0 0 0 0 0 0 0 0 0 0 0 0 0 0 0 0 0 0 0 0 0 0 0 0 0 0 0 0 0 0 0 0 0 0 0 0 0 0 0 0 0 0 0 0 0 0 0 0 0 0 0 0 0 0 0 0 
</DataArray>
</CellData>
</Piece>
</UnstructuredGrid>
</VTKFile>
