<VTKFile type="UnstructuredGrid" version="0.1">
<UnstructuredGrid>
<Piece  NumberOfPoints="       8" NumberOfCells="       2">
<Points>
<DataArray type="Float64" NumberOfComponents="3" format="ascii">
-0.657922 -0.623458 0.0
-0.0327113 -0.623777 0.0
-0.036538 0.623635 0.0
-0.657924 0.623318 0.0
0.036538 -0.623635 0.0
0.657924 -0.623318 0.0
0.657922 0.623458 0.0
0.0327113 0.623777 0.0
</DataArray>
</Points>
<Cells>
<DataArray type="Int32" Name="connectivity" format="ascii">
0 1 2 3 
4 5 6 7 
</DataArray>
<DataArray type="Int32" Name="offsets" format="ascii">
4 8 
</DataArray>
<DataArray type="UInt8" Name="types" format="ascii">
7 7 
</DataArray>
</Cells>
<CellData Scalars="cell variable 4" Vectors="cell vector">
<DataArray type="Float64" NumberOfComponents="3" Name="cell vector" format="ascii">
0 1 1
0 1 1
</DataArray>
<DataArray type="Float64" Name="cell vector length" format="ascii">
0.5 0.5 
</DataArray>
<DataArray type="Float64" Name="cell variable 4" format="ascii">
0 0 
</DataArray>
<DataArray type="Float64" Name="cell variable 5" format="ascii">
0 0 
</DataArray>
<DataArray type="Float64" Name="cell variable 6" format="ascii">
0 0 
</DataArray>
<DataArray type="Float64" Name="cell variable 7" format="ascii">
0 0 
</DataArray>
<DataArray type="Float64" Name="cell variable 8" format="ascii">
0 0 
</DataArray>
</CellData>
</Piece>
</UnstructuredGrid>
</VTKFile>
