<VTKFile type="UnstructuredGrid" version="0.1">
<UnstructuredGrid>
<Piece  NumberOfPoints="      80" NumberOfCells="      56">
<Points>
<DataArray type="Float64" NumberOfComponents="3" format="ascii">
-1.38302 -1.289 0 
1.45197 -1.27682 0 
-1.36742 1.37052 0 
1.45865 1.38714 0 
0.0314004 -1.32119 0 
0.0486927 1.39728 0 
-0.0334294 0.0475538 0 
-1.46206 0.0385014 0 
0.119413 0.171016 0 
1.54471 0.0691267 0 
0.780656 -1.34647 0 
0.868009 0.0688194 0 
-0.775264 0.0825707 0 
-0.732475 1.42886 0 
-0.841008 0.0239072 0 
-0.758571 -1.3467 0 
0.886747 1.43618 0 
0.81282 0.121989 0 
0.0176687 -0.607808 0 
0.834616 -0.598813 0 
-0.810992 -0.668938 0 
-6.49003e-05 -0.680321 0 
0.0733684 0.753672 0 
-0.764422 0.738936 0 
-0.798688 -0.00915486 0.0
-0.771673 -0.632716 0.0
-0.041839 -0.64296 0.0
-0.0258787 -0.577699 0.0
-0.071867 0.0121271 0.0
-0.739518 0.0436423 0.0
0.0414019 -0.70852 0.0
0.0697207 -1.2853 0.0
0.744051 -1.30806 0.0
0.792614 -0.635163 0.0
0.0573622 -0.643259 0.0
0.073943 0.194422 0.0
0.0325025 0.718813 0.0
-0.721509 0.70555 0.0
-0.731266 0.114821 0.0
-0.0636155 0.0833063 0.0
0.844909 1.37269 0.0
0.0906601 1.33769 0.0
0.112868 0.75844 0.0
0.154309 0.234049 0.0
0.778375 0.189926 0.0
0.81865 -1.2738 0.0
1.42283 -1.21111 0.0
1.5063 0.000238843 0.0
0.897267 -3.77909e-05 0.0
0.867213 -0.600907 0.0
-0.865433 0.0922121 0.0
-0.806263 0.145009 0.0
-0.796506 0.735738 0.0
-0.767754 1.35667 0.0
-1.3392 1.30416 0.0
-1.42438 0.105347 0.0
-0.868152 -0.0428208 0.0
-1.4271 -0.0296859 0.0
-1.35596 -1.22444 0.0
-0.793959 -1.27637 0.0
-0.841138 -0.666382 0.0
1.43012 1.31978 0.0
0.915416 1.36391 0.0
0.848882 0.181146 0.0
0.898552 0.133293 0.0
1.50758 0.13357 0.0
0.0117827 0.020188 0.0
0.057771 -0.569638 0.0
0.793023 -0.561542 0.0
0.823078 0.039327 0.0
0.773407 0.0871799 0.0
0.149341 0.131304 0.0
-0.768732 -0.702349 0.0
-0.721553 -1.31234 0.0
-0.0105784 -1.28938 0.0
-0.0388971 -0.712593 0.0
0.0311841 0.785892 0.0
0.00897595 1.36514 0.0
-0.694075 1.39356 0.0
-0.722828 0.772629 0.0
</DataArray>
</Points>
<Cells>
<DataArray type="Int32" Name="connectivity" format="ascii">
14 20 25 24 20 21 26 25 21 18 27 26 18 6 28 27 6 12 29 28 12 14 24 29 21 4 31 30 4 10 32 31 10 19 33 32 19 18 34 33 18 21 30 34 8 22 36 35 22 23 37 36 23 12 38 37 12 6 39 38 6 8 35 39 16 5 41 40 5 22 42 41 22 8 43 42 8 17 44 43 17 16 40 44 10 1 46 45 1 9 47 46 9 11 48 47 11 19 49 48 19 10 45 49 14 12 51 50 12 23 52 51 23 13 53 52 13 2 54 53 2 7 55 54 7 14 50 55 14 7 57 56 7 0 58 57 0 15 59 58 15 20 60 59 20 14 56 60 3 16 62 61 16 17 63 62 17 11 64 63 11 9 65 64 9 3 61 65 6 18 67 66 18 19 68 67 19 11 69 68 11 17 70 69 17 8 71 70 8 6 66 71 20 15 73 72 15 4 74 73 4 21 75 74 21 20 72 75 22 5 77 76 5 13 78 77 13 23 79 78 23 22 76 79 
</DataArray>
<DataArray type="Int32" Name="offsets" format="ascii">
4 8 12 16 20 24 28 32 36 40 44 48 52 56 60 64 68 72 76 80 84 88 92 96 100 104 108 112 116 120 124 128 132 136 140 144 148 152 156 160 164 168 172 176 180 184 188 192 196 200 204 208 212 216 220 224 
</DataArray>
<DataArray type="UInt8" Name="types" format="ascii">
7 7 7 7 7 7 7 7 7 7 7 7 7 7 7 7 7 7 7 7 7 7 7 7 7 7 7 7 7 7 7 7 7 7 7 7 7 7 7 7 7 7 7 7 7 7 7 7 7 7 7 7 7 7 7 7 
</DataArray>
</Cells>
<CellData Scalars="wall variable 0">
<DataArray type="Float64" Name="wall length" format="ascii">
0.59791 0.764593 0.0636905 0.55101 0.609817 0.0717769 0.567967 0.623748 0.671041 0.761789 0.0636905 0.494413 0.795563 0.565052 0.609817 0.154788 0.703666 0.566566 0.494413 0.570887 1.16367 0.592147 1.17133 0.605904 0.573592 0.671041 0.0717769 0.565052 0.61999 0.560041 1.16 0.556147 0.556147 1.1568 0.552393 0.610365 0.59791 0.504937 1.16367 0.0625797 0.605904 1.14823 0.55101 0.761789 0.573592 0.0625797 0.570887 0.154788 0.610365 0.659714 0.567967 0.764593 0.566566 0.652044 0.61999 0.795563 
</DataArray>
<DataArray type="Float64" Name="wall variable 0" format="ascii">
0 0 0 0 0 0 0 0 0 0 0 0 0 0 0 0 0 0 0 0 0 0 0 0 0 0 0 0 0 0 0 0 0 0 0 0 0 0 0 0 0 0 0 0 0 0 0 0 0 0 0 0 0 0 0 0 
</DataArray>
<DataArray type="Float64" Name="wall variable 1" format="ascii">
0 0 0 0 0 0 0 0 0 0 0 0 0 0 0 0 0 0 0 0 0 0 0 0 0 0 0 0 0 0 0 0 0 0 0 0 0 0 0 0 0 0 0 0 0 0 0 0 0 0 0 0 0 0 0 0 
</DataArray>
</CellData>
</Piece>
</UnstructuredGrid>
</VTKFile>
