<VTKFile type="UnstructuredGrid" version="0.1">
<UnstructuredGrid>
<Piece  NumberOfPoints="      28" NumberOfCells="      18">
<Points>
<DataArray type="Float64" NumberOfComponents="3" format="ascii">
-0.749832 -0.755261 0 
0.749523 -0.754442 0 
-0.749425 0.738804 0 
0.74988 0.739618 0 
0.00166516 -0.754361 0 
-0.00156605 0.739398 0 
-0.0175156 -0.00420323 0 
-0.793027 -0.00896993 0 
0.0170032 0.0645486 0 
0.793295 -0.0051319 0 
-0.0374452 -0.716798 0.0
-0.0547079 -0.0416553 0.0
-0.752668 -0.0459453 0.0
-0.713793 -0.717607 0.0
0.0529431 0.0224349 0.0
0.0218762 -0.0394417 0.0
0.0391389 -0.714584 0.0
0.712211 -0.714656 0.0
0.751605 -0.0402775 0.0
-0.0540199 0.0324121 0.0
-0.022953 0.0942887 0.0
-0.0396653 0.701654 0.0
-0.712739 0.701118 0.0
-0.75198 0.0281221 0.0
0.0381812 0.703722 0.0
0.0548935 0.0963574 0.0
0.753556 0.0336449 0.0
0.714483 0.70392 0.0
</DataArray>
</Points>
<Cells>
<DataArray type="Int32" Name="connectivity" format="ascii">
4 6 11 10 6 7 12 11 7 0 13 12 0 4 10 13 8 6 15 14 6 4 16 15 4 1 17 16 1 9 18 17 9 8 14 18 6 8 20 19 8 5 21 20 5 2 22 21 2 7 23 22 7 6 19 23 5 8 25 24 8 9 26 25 9 3 27 26 3 5 24 27 
</DataArray>
<DataArray type="Int32" Name="offsets" format="ascii">
4 8 12 16 20 24 28 32 36 40 44 48 52 56 60 64 68 72 
</DataArray>
<DataArray type="UInt8" Name="types" format="ascii">
7 7 7 7 7 7 7 7 7 7 7 7 7 7 7 7 7 7 
</DataArray>
</Cells>
<CellData Scalars="wall variable 0">
<DataArray type="Float64" Name="wall length" format="ascii">
0.67908 0.724063 0.67822 0.68106 0.068391 0.67908 0.677053 0.679938 0.727736 0.068391 0.611856 0.677054 0.679616 0.724063 0.611856 0.727736 0.677901 0.681053 
</DataArray>
<DataArray type="Float64" Name="wall variable 0" format="ascii">
0 0 0 0 0 0 0 0 0 0 0 0 0 0 0 0 0 0 
</DataArray>
<DataArray type="Float64" Name="wall variable 1" format="ascii">
0 0 0 0 0 0 0 0 0 0 0 0 0 0 0 0 0 0 
</DataArray>
</CellData>
</Piece>
</UnstructuredGrid>
</VTKFile>
