<VTKFile type="UnstructuredGrid" version="0.1">
<UnstructuredGrid>
<Piece  NumberOfPoints="     111" NumberOfCells="      21">
<Points>
<DataArray type="Float64" NumberOfComponents="3" format="ascii">
-1.17225 -0.915049 0.0
-0.727505 -0.927057 0.0
-0.686576 -0.000480172 0.0
-1.16458 0.0410209 0.0
-1.24175 -0.0522549 0.0
-1.22766 -0.846578 0.0
0.450012 -0.932119 0.0
-0.000493794 -0.95157 0.0
-0.068896 -1.02445 0.0
-0.0154558 -1.73562 0.0
0.478687 -1.73725 0.0
-0.0397875 1.01218 0.0
-0.540249 0.991448 0.0
-0.550109 0.108998 0.0
-0.14187 0.0740477 0.0
0.0629844 0.26391 0.0
0.533035 0.221264 0.0
0.582647 0.224585 0.0
0.58704 1.08132 0.0
0.0759926 1.09158 0.0
0.0198465 1.02606 0.0
0.122618 0.277785 0.0
1.1961 -0.848129 0.0
1.13953 -0.91318 0.0
1.0588 -1.73036 0.0
1.82959 -1.65307 0.0
1.9609 -0.949648 0.0
-1.22973 0.133351 0.0
-1.25404 0.893575 0.0
-2.00303 0.922506 0.0
-1.99376 0.0717566 0.0
-1.3069 0.0400747 0.0
-1.29667 -0.848044 0.0
-1.31075 -0.0537213 0.0
-1.99761 -0.0220395 0.0
-2.01307 -0.888994 0.0
1.96425 0.112924 0.0
1.98343 0.915016 0.0
1.24344 0.929062 0.0
1.15046 0.197606 0.0
1.21478 0.111137 0.0
0.00160702 -0.851648 0.0
0.452112 -0.832197 0.0
0.501996 -0.829056 0.0
0.52347 0.119274 0.0
0.113054 0.175795 0.0
-0.0918006 -0.0140664 0.0
-1.13743 -1.00913 0.0
-1.08523 -1.7475 0.0
-0.0988468 -1.74004 0.0
-0.152287 -1.02887 0.0
-0.692694 -1.02114 0.0
-0.0688589 1.10165 0.0
-0.0127127 1.16717 0.0
-0.0579952 1.80259 0.0
-1.04068 1.80549 0.0
-1.09559 1.05491 0.0
-0.569321 1.08092 0.0
0.0566665 1.80814 0.0
0.101949 1.17272 0.0
0.612996 1.16246 0.0
1.07294 1.14311 0.0
1.0998 1.82464 0.0
1.21631 0.0203547 0.0
1.20737 -0.758861 0.0
1.97218 -0.86038 0.0
1.96578 0.0221421 0.0
-1.2462 0.982824 0.0
-1.19407 1.04865 0.0
-1.13915 1.79923 0.0
-1.86452 1.72844 0.0
-1.99519 1.01176 0.0
1.97969 1.00219 0.0
1.84704 1.74792 0.0
1.19549 1.81375 0.0
1.16863 1.13222 0.0
1.2397 1.01624 0.0
-1.23225 -1.00338 0.0
-1.28767 -0.934906 0.0
-2.00407 -0.975856 0.0
-1.88906 -1.66804 0.0
-1.18005 -1.74174 0.0
0.563904 -0.830863 0.0
1.07624 -0.820001 0.0
1.13281 -0.75495 0.0
1.14175 0.0242657 0.0
1.07743 0.110735 0.0
0.634989 0.120788 0.0
0.585377 0.117467 0.0
-0.668289 -0.932039 0.0
-0.127883 -0.939764 0.0
-0.0594805 -0.866885 0.0
-0.152888 -0.0293028 0.0
-0.561127 0.00564786 0.0
-0.62736 -0.00546198 0.0
-0.601845 0.992341 0.0
-1.12812 0.966335 0.0
-1.18025 0.900506 0.0
-1.15594 0.140282 0.0
-0.677937 0.0987807 0.0
-0.611704 0.109891 0.0
0.638211 0.22174 0.0
1.08065 0.211687 0.0
1.17362 0.943143 0.0
1.10255 1.05912 0.0
0.642604 1.07847 0.0
0.55618 -0.926478 0.0
0.506296 -0.929619 0.0
0.534971 -1.73475 0.0
0.987788 -1.73279 0.0
1.06852 -0.915616 0.0
</DataArray>
</Points>
<Cells>
<DataArray type="Int32" Name="connectivity" format="ascii">
0 1 2 3 4 5 
6 7 8 9 10 
11 12 13 14 15 
16 17 18 19 20 21 
22 23 24 25 26 
27 28 29 30 31 
32 33 34 35 
36 37 38 39 40 
41 42 43 44 45 46 
47 48 49 50 51 
52 53 54 55 56 57 
58 59 60 61 62 
63 64 65 66 
67 68 69 70 71 
72 73 74 75 76 
77 78 79 80 81 
82 83 84 85 86 87 88 
89 90 91 92 93 94 
95 96 97 98 99 100 
101 102 103 104 105 
106 107 108 109 110 
</DataArray>
<DataArray type="Int32" Name="offsets" format="ascii">
6 11 16 22 27 32 36 41 47 52 58 63 67 72 77 82 89 95 101 106 111 
</DataArray>
<DataArray type="UInt8" Name="types" format="ascii">
7 7 7 7 7 7 7 7 7 7 7 7 7 7 7 7 7 7 7 7 7 
</DataArray>
</Cells>
<CellData Scalars="cell variable 4" Vectors="cell vector">
<DataArray type="Float64" NumberOfComponents="3" Name="cell vector" format="ascii">
0 1 1
0 1 1
0 1 1
0 1 1
0 1 1
0 1 1
0 1 1
0 1 1
0 1 1
0 1 1
0 1 1
0 1 1
0 1 1
0 1 1
0 1 1
0 1 1
0 1 1
0 1 1
0 1 1
0 1 1
0 1 1
</DataArray>
<DataArray type="Float64" Name="cell vector length" format="ascii">
0.0336938 0.0320328 0.0318698 0.0290556 0.067851 0.06264 0.0599332 0.0626166 0.0337577 0.062235 0.0617085 0.0578257 0.0624139 0.0624141 0.0600748 0.0608911 0.0331929 0.0333746 0.0312398 0.0282946 0.0328843 
</DataArray>
<DataArray type="Float64" Name="cell variable 4" format="ascii">
0 0 0 0 0 0 0 0 0 0 0 0 0 0 0 0 0 0 0 0 0 
</DataArray>
<DataArray type="Float64" Name="cell variable 5" format="ascii">
0 0 0 0 0 0 0 0 0 0 0 0 0 0 0 0 0 0 0 0 0 
</DataArray>
<DataArray type="Float64" Name="cell variable 6" format="ascii">
0 0 0 0 0 0 0 0 0 0 0 0 0 0 0 0 0 0 0 0 0 
</DataArray>
<DataArray type="Float64" Name="cell variable 7" format="ascii">
0 0 0 0 0 0 0 0 0 0 0 0 0 0 0 0 0 0 0 0 0 
</DataArray>
<DataArray type="Float64" Name="cell variable 8" format="ascii">
0 0 0 0 0 0 0 0 0 0 0 0 0 0 0 0 0 0 0 0 0 
</DataArray>
</CellData>
</Piece>
</UnstructuredGrid>
</VTKFile>
