<VTKFile type="UnstructuredGrid" version="0.1">
<UnstructuredGrid>
<Piece  NumberOfPoints="      82" NumberOfCells="      16">
<Points>
<DataArray type="Float64" NumberOfComponents="3" format="ascii">
-1.01492 -0.0900563 0.0
-0.986958 -0.771752 0.0
-0.953283 -0.838347 0.0
-0.107989 -0.858994 0.0
-0.0627321 -0.789664 0.0
-0.131658 -0.0683228 0.0
-0.947787 -0.0148355 0.0
-0.00808621 -0.935782 0.0
0.033904 -1.58553 0.0
0.850683 -1.59227 0.0
0.907467 -0.840794 0.0
0.0371705 -0.866452 0.0
0.0430556 0.176967 0.0
-0.0332315 0.820409 0.0
-0.916045 0.784791 0.0
-0.952452 0.723663 0.0
-0.939197 0.0721567 0.0
-0.123068 0.0186694 0.0
0.101322 0.894064 0.0
0.0660156 0.831127 0.0
0.142303 0.187686 0.0
0.911741 0.130458 0.0
0.979113 0.759309 0.0
0.943011 0.869868 0.0
1.03617 -0.778262 0.0
0.993807 -0.837843 0.0
0.937024 -1.58932 0.0
1.63045 -1.51866 0.0
1.73801 -0.882518 0.0
-1.03138 0.0670295 0.0
-1.04464 0.718536 0.0
-1.73086 0.757173 0.0
-1.72679 0.0167538 0.0
-1.09851 -0.00819129 0.0
-1.07328 -0.7709 0.0
-1.10124 -0.0892036 0.0
-1.72951 -0.0642585 0.0
-1.72589 -0.820646 0.0
1.73877 0.0462754 0.0
1.74365 0.745884 0.0
1.06481 0.745506 0.0
0.99744 0.116656 0.0
1.05296 0.0465397 0.0
-0.0292619 -0.0581804 0.0
0.039664 -0.779522 0.0
0.90996 -0.753864 0.0
0.952325 -0.694283 0.0
0.961825 -0.027226 0.0
0.906301 0.0428899 0.0
0.136862 0.100118 0.0
-0.949479 -0.92 0.0
-0.917375 -1.60139 0.0
-0.0621939 -1.5904 0.0
-0.104184 -0.940647 0.0
-0.0330479 0.899335 0.0
0.00225888 0.962272 0.0
-0.032117 1.54387 0.0
-0.881076 1.55526 0.0
-0.915861 0.863718 0.0
0.066727 1.54879 0.0
0.101103 0.967192 0.0
0.942791 0.942996 0.0
0.973258 1.57037 0.0
1.05493 -0.0320058 0.0
1.04543 -0.699063 0.0
1.74727 -0.803318 0.0
1.74074 -0.0322701 0.0
-1.03826 0.797533 0.0
-1.00186 0.858661 0.0
-0.967071 1.5502 0.0
-1.62032 1.48582 0.0
-1.72448 0.83617 0.0
1.74138 0.823375 0.0
1.64388 1.5016 0.0
1.0569 1.56093 0.0
1.02643 0.933557 0.0
1.06253 0.822998 0.0
-1.03231 -0.914952 0.0
-1.06598 -0.848358 0.0
-1.71859 -0.898105 0.0
-1.63971 -1.52798 0.0
-1.0002 -1.59635 0.0
</DataArray>
</Points>
<Cells>
<DataArray type="Int32" Name="connectivity" format="ascii">
0 1 2 3 4 5 6 
7 8 9 10 11 
12 13 14 15 16 17 
18 19 20 21 22 23 
24 25 26 27 28 
29 30 31 32 33 
34 35 36 37 
38 39 40 41 42 
43 44 45 46 47 48 49 
50 51 52 53 
54 55 56 57 58 
59 60 61 62 
63 64 65 66 
67 68 69 70 71 
72 73 74 75 76 
77 78 79 80 81 
</DataArray>
<DataArray type="Int32" Name="offsets" format="ascii">
7 12 18 24 29 34 38 43 50 54 59 63 67 72 77 82 
</DataArray>
<DataArray type="UInt8" Name="types" format="ascii">
7 7 7 7 7 7 7 7 7 7 7 7 7 7 7 7 
</DataArray>
</Cells>
<CellData Scalars="cell variable 4" Vectors="cell vector">
<DataArray type="Float64" NumberOfComponents="3" Name="cell vector" format="ascii">
0 1 1
0 1 1
0 1 1
0 1 1
0 1 1
0 1 1
0 1 1
0 1 1
0 1 1
0 1 1
0 1 1
0 1 1
0 1 1
0 1 1
0 1 1
0 1 1
</DataArray>
<DataArray type="Float64" Name="cell vector length" format="ascii">
0.0670685 0.0649171 0.0631096 0.0573502 0.067851 0.06264 0.0599332 0.0626166 0.0669506 0.062235 0.0617085 0.0578257 0.0624139 0.0624141 0.0600748 0.0608911 
</DataArray>
<DataArray type="Float64" Name="cell variable 4" format="ascii">
0 0 0 0 0 0 0 0 0 0 0 0 0 0 0 0 
</DataArray>
<DataArray type="Float64" Name="cell variable 5" format="ascii">
0 0 0 0 0 0 0 0 0 0 0 0 0 0 0 0 
</DataArray>
<DataArray type="Float64" Name="cell variable 6" format="ascii">
0 0 0 0 0 0 0 0 0 0 0 0 0 0 0 0 
</DataArray>
<DataArray type="Float64" Name="cell variable 7" format="ascii">
0 0 0 0 0 0 0 0 0 0 0 0 0 0 0 0 
</DataArray>
<DataArray type="Float64" Name="cell variable 8" format="ascii">
0 0 0 0 0 0 0 0 0 0 0 0 0 0 0 0 
</DataArray>
</CellData>
</Piece>
</UnstructuredGrid>
</VTKFile>
