<VTKFile type="UnstructuredGrid" version="0.1">
<UnstructuredGrid>
<Piece  NumberOfPoints="      18" NumberOfCells="       4">
<Points>
<DataArray type="Float64" NumberOfComponents="3" format="ascii">
-0.0481006 -0.83049 0.0
-0.0761485 -0.0451078 0.0
-0.891372 -0.0549516 0.0
-0.840262 -0.835314 0.0
0.0722238 0.0209354 0.0
0.0142435 -0.0422936 0.0
0.0422915 -0.827676 0.0
0.833642 -0.827049 0.0
0.889633 -0.0410617 0.0
-0.0745333 0.0406557 0.0
-0.016553 0.103885 0.0
-0.0426427 0.8102 0.0
-0.833898 0.811776 0.0
-0.889757 0.0308118 0.0
0.0491916 0.812794 0.0
0.0752813 0.106479 0.0
0.892691 0.0444814 0.0
0.841127 0.819818 0.0
</DataArray>
</Points>
<Cells>
<DataArray type="Int32" Name="connectivity" format="ascii">
0 1 2 3 
4 5 6 7 8 
9 10 11 12 13 
14 15 16 17 
</DataArray>
<DataArray type="Int32" Name="offsets" format="ascii">
4 9 14 18 
</DataArray>
<DataArray type="UInt8" Name="types" format="ascii">
7 7 7 7 
</DataArray>
</Cells>
<CellData Scalars="cell variable 4" Vectors="cell vector">
<DataArray type="Float64" NumberOfComponents="3" Name="cell vector" format="ascii">
0 1 1
0 1 1
0 1 1
0 1 1
</DataArray>
<DataArray type="Float64" Name="cell vector length" format="ascii">
0.250128 0.262133 0.249872 0.237867 
</DataArray>
<DataArray type="Float64" Name="cell variable 4" format="ascii">
0 0 0 0 
</DataArray>
<DataArray type="Float64" Name="cell variable 5" format="ascii">
0 0 0 0 
</DataArray>
<DataArray type="Float64" Name="cell variable 6" format="ascii">
0 0 0 0 
</DataArray>
<DataArray type="Float64" Name="cell variable 7" format="ascii">
0 0 0 0 
</DataArray>
<DataArray type="Float64" Name="cell variable 8" format="ascii">
0 0 0 0 
</DataArray>
</CellData>
</Piece>
</UnstructuredGrid>
</VTKFile>
