<VTKFile type="UnstructuredGrid" version="0.1">
<UnstructuredGrid>
<Piece  NumberOfPoints="      28" NumberOfCells="      18">
<Points>
<DataArray type="Float64" NumberOfComponents="3" format="ascii">
-0.771529 -0.775445 0 
0.770681 -0.773846 0 
-0.770521 0.757756 0 
0.771586 0.759343 0 
0.00113612 -0.773313 0 
-0.000986678 0.757636 0 
-0.0226051 -0.0024228 0 
-0.821734 -0.00952682 0 
0.0218394 0.0641416 0 
0.822132 -0.00432312 0 
-0.0393152 -0.734782 0.0
-0.0606823 -0.0409805 0.0
-0.779898 -0.0473741 0.0
-0.734714 -0.7367 0.0
0.0584231 0.0212181 0.0
0.018423 -0.0386898 0.0
0.0397901 -0.732491 0.0
0.73238 -0.732971 0.0
0.778687 -0.0404001 0.0
-0.0597502 0.034904 0.0
-0.0197502 0.0948119 0.0
-0.0402937 0.718957 0.0
-0.732874 0.719065 0.0
-0.778966 0.0285104 0.0
0.0401076 0.721079 0.0
0.0606511 0.0969338 0.0
0.780915 0.0353156 0.0
0.735423 0.722615 0.0
</DataArray>
</Points>
<Cells>
<DataArray type="Int32" Name="connectivity" format="ascii">
4 6 11 10 6 7 12 11 7 0 13 12 0 4 10 13 8 6 15 14 6 4 16 15 4 1 17 16 1 9 18 17 9 8 14 18 6 8 20 19 8 5 21 20 5 2 22 21 2 7 23 22 7 6 19 23 5 8 25 24 8 9 26 25 9 3 27 26 3 5 24 27 
</DataArray>
<DataArray type="Int32" Name="offsets" format="ascii">
4 8 12 16 20 24 28 32 36 40 44 48 52 56 60 64 68 72 
</DataArray>
<DataArray type="UInt8" Name="types" format="ascii">
7 7 7 7 7 7 7 7 7 7 7 7 7 7 7 7 7 7 
</DataArray>
</Cells>
<CellData Scalars="wall variable 0">
<DataArray type="Float64" Name="wall length" format="ascii">
0.696709 0.73776 0.695315 0.698519 0.0705699 0.696709 0.694649 0.69739 0.741496 0.0705699 0.627521 0.694649 0.696726 0.73776 0.627521 0.741496 0.694658 0.698497 
</DataArray>
<DataArray type="Float64" Name="wall variable 0" format="ascii">
0 0 0 0 0 0 0 0 0 0 0 0 0 0 0 0 0 0 
</DataArray>
<DataArray type="Float64" Name="wall variable 1" format="ascii">
0 0 0 0 0 0 0 0 0 0 0 0 0 0 0 0 0 0 
</DataArray>
</CellData>
</Piece>
</UnstructuredGrid>
</VTKFile>
