<VTKFile type="UnstructuredGrid" version="0.1">
<UnstructuredGrid>
<Piece  NumberOfPoints="      28" NumberOfCells="      18">
<Points>
<DataArray type="Float64" NumberOfComponents="3" format="ascii">
-0.895876 -0.892305 0 
0.89059 -0.885683 0 
-0.890029 0.86777 0 
0.896052 0.874395 0 
-0.00233314 -0.886791 0 
0.00277764 0.866074 0 
-0.0339447 -0.00147634 0 
-0.95259 -0.0125646 0 
0.0320817 0.0699239 0 
0.953271 0.000656001 0 
-0.049183 -0.842734 0.0
-0.0776334 -0.0459508 0.0
-0.904414 -0.0559302 0.0
-0.853372 -0.847696 0.0
0.0735368 0.0211995 0.0
0.014113 -0.0430607 0.0
0.0425634 -0.839844 0.0
0.846194 -0.838847 0.0
0.902607 -0.0411416 0.0
-0.0759467 0.0410752 0.0
-0.0165229 0.105335 0.0
-0.0428966 0.821871 0.0
-0.846423 0.823397 0.0
-0.902728 0.0310958 0.0
0.0503092 0.824536 0.0
0.0766829 0.108001 0.0
0.905754 0.0456597 0.0
0.854257 0.832025 0.0
</DataArray>
</Points>
<Cells>
<DataArray type="Int32" Name="connectivity" format="ascii">
4 6 11 10 6 7 12 11 7 0 13 12 0 4 10 13 8 6 15 14 6 4 16 15 4 1 17 16 1 9 18 17 9 8 14 18 6 8 20 19 8 5 21 20 5 2 22 21 2 7 23 22 7 6 19 23 5 8 25 24 8 9 26 25 9 3 27 26 3 5 24 27 
</DataArray>
<DataArray type="Int32" Name="offsets" format="ascii">
4 8 12 16 20 24 28 32 36 40 44 48 52 56 60 64 68 72 
</DataArray>
<DataArray type="UInt8" Name="types" format="ascii">
7 7 7 7 7 7 7 7 7 7 7 7 7 7 7 7 7 7 
</DataArray>
</Cells>
<CellData Scalars="wall variable 0">
<DataArray type="Float64" Name="wall length" format="ascii">
0.795607 0.830046 0.79227 0.799652 0.0841868 0.795607 0.797319 0.796802 0.83443 0.0841868 0.715886 0.797269 0.793503 0.830046 0.715886 0.83443 0.788997 0.799512 
</DataArray>
<DataArray type="Float64" Name="wall variable 0" format="ascii">
0 0 0 0 0 0 0 0 0 0 0 0 0 0 0 0 0 0 
</DataArray>
<DataArray type="Float64" Name="wall variable 1" format="ascii">
0 0 0 0 0 0 0 0 0 0 0 0 0 0 0 0 0 0 
</DataArray>
</CellData>
</Piece>
</UnstructuredGrid>
</VTKFile>
