<VTKFile type="UnstructuredGrid" version="0.1">
<UnstructuredGrid>
<Piece  NumberOfPoints="      82" NumberOfCells="      16">
<Points>
<DataArray type="Float64" NumberOfComponents="3" format="ascii">
-0.957105 -0.0828932 0.0
-0.91431 -0.721438 0.0
-0.902162 -0.790194 0.0
-0.100217 -0.810938 0.0
-0.0633474 -0.74278 0.0
-0.123675 -0.0624271 0.0
-0.892668 -0.0150954 0.0
-0.00630195 -0.884429 0.0
0.0329812 -1.51161 0.0
0.804855 -1.52174 0.0
0.852487 -0.79418 0.0
0.0305677 -0.81627 0.0
0.0403394 0.164154 0.0
-0.0272291 0.771408 0.0
-0.860855 0.741088 0.0
-0.88582 0.679292 0.0
-0.884546 0.0667463 0.0
-0.115554 0.0194145 0.0
0.091546 0.843878 0.0
0.0654947 0.781405 0.0
0.133063 0.174151 0.0
0.85617 0.120113 0.0
0.904148 0.712011 0.0
0.891388 0.820771 0.0
0.967782 -0.731845 0.0
0.934236 -0.791507 0.0
0.886605 -1.51906 0.0
1.55194 -1.44963 0.0
1.64265 -0.836676 0.0
-0.971928 0.0619652 0.0
-0.973203 0.674511 0.0
-1.63145 0.71565 0.0
-1.64235 0.0159822 0.0
-1.03637 -0.00583262 0.0
-0.995619 -0.720362 0.0
-1.03841 -0.0818172 0.0
-1.6444 -0.0600023 0.0
-1.61282 -0.770502 0.0
1.65191 0.0431338 0.0
1.6364 0.703645 0.0
0.985121 0.699037 0.0
0.937143 0.107139 0.0
0.990508 0.0439198 0.0
-0.0278498 -0.0530741 0.0
0.0324783 -0.733427 0.0
0.854398 -0.711336 0.0
0.887943 -0.651674 0.0
0.904515 -0.0255919 0.0
0.85115 0.037627 0.0
0.128043 0.0916653 0.0
-0.899059 -0.868296 0.0
-0.867935 -1.52971 0.0
-0.0578304 -1.51622 0.0
-0.0971135 -0.88904 0.0
-0.0275202 0.846813 0.0
-0.00146891 0.909286 0.0
-0.0311183 1.4711 0.0
-0.833864 1.48651 0.0
-0.861146 0.816493 0.0
0.0622912 1.47574 0.0
0.0919406 0.913923 0.0
0.891783 0.890816 0.0
0.921395 1.49915 0.0
0.992907 -0.0300418 0.0
0.976334 -0.656124 0.0
1.6512 -0.760955 0.0
1.65431 -0.0308278 0.0
-0.967377 0.750035 0.0
-0.942412 0.811831 0.0
-0.915129 1.48185 0.0
-1.54227 1.41886 0.0
-1.62563 0.791173 0.0
1.63482 0.777807 0.0
1.56426 1.43426 0.0
1.0004 1.49029 0.0
0.970783 0.881958 0.0
0.983543 0.773198 0.0
-0.977123 -0.863589 0.0
-0.989271 -0.794833 0.0
-1.60647 -0.844974 0.0
-1.56066 -1.45874 0.0
-0.945999 -1.525 0.0
</DataArray>
</Points>
<Cells>
<DataArray type="Int32" Name="connectivity" format="ascii">
0 1 2 3 4 5 6 
7 8 9 10 11 
12 13 14 15 16 17 
18 19 20 21 22 23 
24 25 26 27 28 
29 30 31 32 33 
34 35 36 37 
38 39 40 41 42 
43 44 45 46 47 48 49 
50 51 52 53 
54 55 56 57 58 
59 60 61 62 
63 64 65 66 
67 68 69 70 71 
72 73 74 75 76 
77 78 79 80 81 
</DataArray>
<DataArray type="Int32" Name="offsets" format="ascii">
7 12 18 24 29 34 38 43 50 54 59 63 67 72 77 82 
</DataArray>
<DataArray type="UInt8" Name="types" format="ascii">
7 7 7 7 7 7 7 7 7 7 7 7 7 7 7 7 
</DataArray>
</Cells>
<CellData Scalars="cell variable 4" Vectors="cell vector">
<DataArray type="Float64" NumberOfComponents="3" Name="cell vector" format="ascii">
0 1 1
0 1 1
0 1 1
0 1 1
0 1 1
0 1 1
0 1 1
0 1 1
0 1 1
0 1 1
0 1 1
0 1 1
0 1 1
0 1 1
0 1 1
0 1 1
</DataArray>
<DataArray type="Float64" Name="cell vector length" format="ascii">
0.0670685 0.0649171 0.0631096 0.0573502 0.067851 0.06264 0.0599332 0.0626166 0.0669506 0.062235 0.0617085 0.0578257 0.0624139 0.0624141 0.0600748 0.0608911 
</DataArray>
<DataArray type="Float64" Name="cell variable 4" format="ascii">
0 0 0 0 0 0 0 0 0 0 0 0 0 0 0 0 
</DataArray>
<DataArray type="Float64" Name="cell variable 5" format="ascii">
0 0 0 0 0 0 0 0 0 0 0 0 0 0 0 0 
</DataArray>
<DataArray type="Float64" Name="cell variable 6" format="ascii">
0 0 0 0 0 0 0 0 0 0 0 0 0 0 0 0 
</DataArray>
<DataArray type="Float64" Name="cell variable 7" format="ascii">
0 0 0 0 0 0 0 0 0 0 0 0 0 0 0 0 
</DataArray>
<DataArray type="Float64" Name="cell variable 8" format="ascii">
0 0 0 0 0 0 0 0 0 0 0 0 0 0 0 0 
</DataArray>
</CellData>
</Piece>
</UnstructuredGrid>
</VTKFile>
