<VTKFile type="UnstructuredGrid" version="0.1">
<UnstructuredGrid>
<Piece  NumberOfPoints="     102" NumberOfCells="      72">
<Points>
<DataArray type="Float64" NumberOfComponents="3" format="ascii">
-1.52004 -1.43397 0 
1.51399 -1.42155 0 
-1.50173 1.38913 0 
1.52258 1.40751 0 
-0.00771302 -1.48214 0 
0.013277 1.43387 0 
-0.0751082 -0.0209929 0 
-1.60223 -0.0254061 0 
0.0888461 0.124794 0 
1.61293 0.00755404 0 
0.804062 -1.49792 0 
0.903045 0.0064248 0 
-0.882108 0.0241444 0 
-0.831651 1.45663 0 
-0.951463 -0.0437685 0 
-0.861657 -1.50137 0 
0.919158 1.46339 0 
0.845659 0.069215 0 
-0.0151808 -0.734564 0 
0.850581 -0.714238 0 
-0.906594 -0.790162 0 
-0.0478745 -0.808785 0 
0.0220201 0.761587 0 
-0.859971 0.732685 0 
0.0404289 0.830128 0 
0.891534 0.805186 0 
0.870146 -0.645737 0 
1.58342 -0.760412 0 
-0.864297 0.662776 0 
-1.55406 0.706 0 
-0.905179 -0.0794093 0.0
-0.864797 -0.751163 0.0
-0.091949 -0.767924 0.0
-0.0625247 -0.701125 0.0
-0.116459 -0.0589114 0.0
-0.842759 -0.0182878 0.0
-0.00278493 -0.838043 0.0
0.0333604 -1.44406 0.0
0.763958 -1.45827 0.0
0.805825 -0.752951 0.0
0.0266394 -0.771244 0.0
0.0395413 0.149507 0.0
-0.0206021 0.722621 0.0
-0.814394 0.69661 0.0
-0.818288 0.633691 0.0
-0.834318 0.0589227 0.0
-0.108018 0.0182991 0.0
0.0827932 0.793686 0.0
0.0662253 0.732 0.0
0.126369 0.158886 0.0
0.8075 0.108865 0.0
0.848788 0.771239 0.0
0.900571 -0.688942 0.0
0.882962 -0.750593 0.0
0.841095 -1.45591 0.0
1.48003 -1.38717 0.0
1.54252 -0.79215 0.0
-0.916872 0.0541091 0.0
-0.900842 0.628878 0.0
-1.52163 0.667779 0.0
-1.56498 0.00951365 0.0
-0.979291 -0.00701245 0.0
-0.979539 -0.1146 0.0
-1.56523 -0.0980738 0.0
-1.49126 -1.36578 0.0
-0.898714 -1.42644 0.0
-0.939158 -0.786354 0.0
1.49274 1.33607 0.0
0.949666 1.38636 0.0
0.924804 0.793982 0.0
0.883517 0.131607 0.0
0.935165 0.0750963 0.0
1.57406 0.0761126 0.0
-0.0260894 -0.0499656 0.0
0.0278453 -0.69218 0.0
0.807031 -0.673887 0.0
0.82464 -0.612235 0.0
0.854249 -0.0252897 0.0
0.802601 0.0312215 0.0
0.121469 0.0812424 0.0
-0.861922 -0.825691 0.0
-0.821478 -1.46578 0.0
-0.0529289 -1.44847 0.0
-0.0890742 -0.842451 0.0
-0.021651 0.79471 0.0
-0.00508311 0.856397 0.0
-0.0295198 1.39977 0.0
-0.789955 1.42024 0.0
-0.815443 0.768699 0.0
0.0591895 1.40413 0.0
0.0836262 0.860759 0.0
0.849621 0.838312 0.0
0.874482 1.43069 0.0
0.937938 -0.0291689 0.0
0.908329 -0.616114 0.0
1.55028 -0.719322 0.0
1.57683 -0.0281526 0.0
-0.895784 0.701629 0.0
-0.89189 0.764548 0.0
-0.866403 1.41609 0.0
-1.46947 1.35535 0.0
-1.51657 0.740531 0.0
</DataArray>
</Points>
<Cells>
<DataArray type="Int32" Name="connectivity" format="ascii">
14 20 31 30 20 21 32 31 21 18 33 32 18 6 34 33 6 12 35 34 12 14 30 35 21 4 37 36 4 10 38 37 10 19 39 38 19 18 40 39 18 21 36 40 8 22 42 41 22 23 43 42 23 28 44 43 28 12 45 44 12 6 46 45 6 8 41 46 24 22 48 47 22 8 49 48 8 17 50 49 17 25 51 50 25 24 47 51 26 19 53 52 19 10 54 53 10 1 55 54 1 27 56 55 27 26 52 56 12 28 58 57 28 29 59 58 29 7 60 59 7 14 61 60 14 12 57 61 14 7 63 62 7 0 64 63 0 15 65 64 15 20 66 65 20 14 62 66 3 16 68 67 16 25 69 68 25 17 70 69 17 11 71 70 11 9 72 71 9 3 67 72 6 18 74 73 18 19 75 74 19 26 76 75 26 11 77 76 11 17 78 77 17 8 79 78 8 6 73 79 20 15 81 80 15 4 82 81 4 21 83 82 21 20 80 83 22 24 85 84 24 5 86 85 5 13 87 86 13 23 88 87 23 22 84 88 5 24 90 89 24 25 91 90 25 16 92 91 16 5 89 92 11 26 94 93 26 27 95 94 27 9 96 95 9 11 93 96 28 23 98 97 23 13 99 98 13 2 100 99 2 29 101 100 29 28 97 101 
</DataArray>
<DataArray type="Int32" Name="offsets" format="ascii">
4 8 12 16 20 24 28 32 36 40 44 48 52 56 60 64 68 72 76 80 84 88 92 96 100 104 108 112 116 120 124 128 132 136 140 144 148 152 156 160 164 168 172 176 180 184 188 192 196 200 204 208 212 216 220 224 228 232 236 240 244 248 252 256 260 264 268 272 276 280 284 288 
</DataArray>
<DataArray type="UInt8" Name="types" format="ascii">
7 7 7 7 7 7 7 7 7 7 7 7 7 7 7 7 7 7 7 7 7 7 7 7 7 7 7 7 7 7 7 7 7 7 7 7 7 7 7 7 7 7 7 7 7 7 7 7 7 7 7 7 7 7 7 7 7 7 7 7 7 7 7 7 7 7 7 7 7 7 7 7 
</DataArray>
</Cells>
<CellData Scalars="wall variable 0">
<DataArray type="Float64" Name="wall length" format="ascii">
0.63561 0.786557 0.0680392 0.592643 0.660648 0.0781615 0.595572 0.671873 0.700736 0.786064 0.0680392 0.530624 0.815291 0.0601074 0.541048 0.660648 0.171058 0.0601446 0.530624 0.618711 0.631565 0.800624 0.0609593 0.700736 0.623468 0.581003 0.699568 0.541048 0.687427 0.632479 0.580659 0.0781615 0.580659 1.22224 0.580608 0.636621 0.63561 0.531 0.590975 0.631565 0.0681462 0.63266 1.21352 0.592643 0.786064 0.0609593 0.549766 0.0681462 0.618711 0.171058 0.636621 0.70954 0.595572 0.786557 0.0601446 0.534807 0.701486 0.646816 0.815291 0.534807 0.800624 0.590975 0.755456 0.549766 0.699568 0.657597 0.63266 0.0601074 0.646816 0.589296 0.593928 0.687427 
</DataArray>
<DataArray type="Float64" Name="wall variable 0" format="ascii">
0 0 0 0 0 0 0 0 0 0 0 0 0 0 0 0 0 0 0 0 0 0 0 0 0 0 0 0 0 0 0 0 0 0 0 0 0 0 0 0 0 0 0 0 0 0 0 0 0 0 0 0 0 0 0 0 0 0 0 0 0 0 0 0 0 0 0 0 0 0 0 0 
</DataArray>
<DataArray type="Float64" Name="wall variable 1" format="ascii">
0 0 0 0 0 0 0 0 0 0 0 0 0 0 0 0 0 0 0 0 0 0 0 0 0 0 0 0 0 0 0 0 0 0 0 0 0 0 0 0 0 0 0 0 0 0 0 0 0 0 0 0 0 0 0 0 0 0 0 0 0 0 0 0 0 0 0 0 0 0 0 0 
</DataArray>
</CellData>
</Piece>
</UnstructuredGrid>
</VTKFile>
