<VTKFile type="UnstructuredGrid" version="0.1">
<UnstructuredGrid>
<Piece  NumberOfPoints="     388" NumberOfCells="      69">
<Points>
<DataArray type="Float64" NumberOfComponents="3" format="ascii">
-2.41784 -0.87791 0.0
-1.96406 -0.900561 0.0
-1.87668 -0.0328487 0.0
-2.27099 0.013492 0.0
-2.42921 -0.19415 0.0
-0.0330872 -2.7041 0.0
0.0102768 -3.17957 0.0
0.981352 -3.19249 0.0
0.969747 -2.58728 0.0
-0.00728568 -2.65142 0.0
0.0710256 0.941537 0.0
-0.418933 0.90262 0.0
-0.460985 0.00167551 0.0
-0.215544 -0.0502477 0.0
0.220901 0.362665 0.0
0.668673 1.1516 0.0
0.197744 1.1171 0.0
0.134425 0.970212 0.0
0.284301 0.39134 0.0
0.540558 0.322866 0.0
0.717394 0.305593 0.0
0.748293 1.15685 0.0
2.21206 -2.6028 0.0
2.04588 -3.12087 0.0
3.25156 -2.97379 0.0
3.42081 -2.57063 0.0
2.31149 -2.44787 0.0
-2.41978 0.779177 0.0
-2.88552 0.765319 0.0
-2.9344 0.753968 0.0
-2.94882 -0.0653805 0.0
-2.47807 -0.116262 0.0
-2.31985 0.0913805 0.0
-3.01733 -0.952148 0.0
-2.51088 -0.95948 0.0
-2.4765 -0.890171 0.0
-2.48787 -0.206411 0.0
-2.95862 -0.15553 0.0
-3.01235 -0.15285 0.0
2.43067 0.0476065 0.0
2.95904 0.0652334 0.0
2.97896 0.831714 0.0
2.92935 0.840071 0.0
2.46773 0.88233 0.0
2.29752 0.247406 0.0
0.522882 -0.864682 0.0
0.465728 -0.84858 0.0
-0.0146354 -0.884251 0.0
-0.107991 -1.0767 0.0
0.0326706 -1.80078 0.0
0.5353 -1.79842 0.0
-2.26877 -2.43097 0.0
-2.19342 -2.60466 0.0
-1.26905 -2.51995 0.0
-1.23685 -2.05962 0.0
-1.37662 -1.95159 0.0
-1.86989 -1.97965 0.0
-2.20838 -1.99916 0.0
0.121706 2.07237 0.0
0.0601241 2.50688 0.0
0.0361825 2.54801 0.0
-0.954427 2.48613 0.0
-0.98808 2.42675 0.0
-0.940734 1.95167 0.0
-0.522461 1.94469 0.0
-0.020732 1.94284 0.0
0.172689 2.51644 0.0
0.234271 2.08192 0.0
0.660942 2.08195 0.0
1.13946 2.08128 0.0
1.16663 2.51618 0.0
1.14242 2.61718 0.0
3.06849 -0.913337 0.0
3.01433 -0.919729 0.0
3.02949 -1.68594 0.0
3.53417 -1.7267 0.0
3.61347 -0.91088 0.0
-2.24856 1.85974 0.0
-2.31636 2.29778 0.0
-3.38942 2.41587 0.0
-3.44409 1.70802 0.0
-2.95717 1.71669 0.0
-2.35975 1.7213 0.0
3.52396 1.71225 0.0
3.47152 2.40559 0.0
2.40973 2.32891 0.0
2.3038 1.99848 0.0
2.46369 1.77822 0.0
3.04794 1.74425 0.0
-3.41136 -2.60226 0.0
-3.25227 -2.98958 0.0
-2.16066 -3.12557 0.0
-2.29291 -2.65738 0.0
-2.36826 -2.48369 0.0
1.8011 -0.866336 0.0
1.75281 -0.881928 0.0
1.81755 -1.75595 0.0
2.18525 -1.77052 0.0
2.30543 -1.6321 0.0
2.38595 -0.921447 0.0
2.34625 -0.848431 0.0
-0.169747 -1.09999 0.0
-0.662644 -1.12772 0.0
-0.643832 -1.97688 0.0
-0.191764 -1.97932 0.0
-0.0290857 -1.82408 0.0
-1.72612 1.01854 0.0
-1.66902 1.01777 0.0
-1.17992 1.04224 0.0
-1.12957 1.79878 0.0
-1.69334 1.79902 0.0
1.37152 1.10017 0.0
1.3509 0.313033 0.0
1.77551 0.270582 0.0
2.21477 0.272205 0.0
2.38498 0.907128 0.0
2.32522 1.08372 0.0
1.09755 -1.90734 0.0
1.13229 -2.44981 0.0
2.10769 -2.5423 0.0
2.20711 -2.38737 0.0
2.14455 -1.85938 0.0
1.77685 -1.84481 0.0
1.18876 -1.83441 0.0
-1.06086 1.94473 0.0
-1.1082 2.41981 0.0
-2.1031 2.48715 0.0
-2.1924 2.31079 0.0
-2.1246 1.87275 0.0
-1.71322 1.87384 0.0
-1.14945 1.8736 0.0
-0.101167 -3.18509 0.0
-0.144531 -2.70963 0.0
-1.1058 -2.71164 0.0
-1.12004 -3.20989 0.0
2.23385 2.62184 0.0
2.15503 3.0469 0.0
1.24858 3.10639 0.0
1.24322 2.66743 0.0
1.26743 2.56642 0.0
-2.88322 0.858522 0.0
-2.41748 0.872381 0.0
-2.35607 0.992938 0.0
-2.33562 1.64443 0.0
-2.93303 1.63983 0.0
3.56048 1.63155 0.0
3.08445 1.66354 0.0
2.99462 0.920213 0.0
3.04423 0.911856 0.0
3.63941 0.862412 0.0
3.02334 -0.0324812 0.0
2.96446 -0.0228768 0.0
2.4361 -0.0405037 0.0
2.41221 -0.763402 0.0
2.45192 -0.836418 0.0
2.95638 -0.833208 0.0
3.01054 -0.826816 0.0
-0.0184063 -0.779225 0.0
0.461957 -0.743553 0.0
0.513815 0.219861 0.0
0.257557 0.288335 0.0
-0.178889 -0.124579 0.0
2.26807 -1.8518 0.0
2.33064 -2.37978 0.0
3.43997 -2.50253 0.0
3.49308 -1.80648 0.0
2.9884 -1.76573 0.0
2.38825 -1.71338 0.0
1.80232 -0.767949 0.0
2.34746 -0.750044 0.0
2.37135 -0.0271459 0.0
2.2382 0.172654 0.0
1.79894 0.171031 0.0
-2.45448 -1.77671 0.0
-2.53643 -1.04375 0.0
-3.04288 -1.03642 0.0
-3.54829 -1.02892 0.0
-3.47756 -1.79012 0.0
-0.481611 1.00746 0.0
-0.42398 0.998172 0.0
0.0659787 1.03709 0.0
0.129298 1.18398 0.0
0.00128138 1.86232 0.0
-0.500448 1.86417 0.0
-0.668758 -1.03181 0.0
-0.175862 -1.00408 0.0
-0.0825064 -0.811634 0.0
-0.242989 -0.156988 0.0
-0.48843 -0.105064 0.0
-0.676587 -0.096625 0.0
-0.737501 -1.01932 0.0
-1.17805 0.94874 0.0
-1.66714 0.924269 0.0
-1.7091 0.0566874 0.0
-1.29195 -0.00730312 0.0
-1.16377 0.0852703 0.0
-1.12379 0.873479 0.0
-2.24882 -1.91467 0.0
-1.91033 -1.89516 0.0
-1.9129 -1.0064 0.0
-1.96341 -0.998659 0.0
-2.4172 -0.976008 0.0
-2.45158 -1.04532 0.0
-2.36963 -1.77828 0.0
-2.29747 2.36257 0.0
-2.20818 2.53893 0.0
-2.07209 3.01455 0.0
-3.20026 2.87814 0.0
-3.37053 2.48066 0.0
0.1886 1.20329 0.0
0.659529 1.23778 0.0
0.629692 2.01118 0.0
0.203021 2.01115 0.0
0.0605832 1.88162 0.0
3.45768 2.46979 0.0
3.27433 2.91446 0.0
2.26645 3.03357 0.0
2.34527 2.60852 0.0
2.3959 2.39311 0.0
-3.46896 -1.86586 0.0
-3.42856 -2.53923 0.0
-2.38546 -2.42065 0.0
-2.32507 -1.98884 0.0
-2.44588 -1.85245 0.0
1.31745 1.26667 0.0
1.37039 1.18608 0.0
2.32409 1.16964 0.0
2.35104 1.72809 0.0
2.19116 1.94834 0.0
1.34031 1.93774 0.0
1.11959 -2.51755 0.0
1.07325 -2.58211 0.0
1.08486 -3.18732 0.0
1.9288 -3.12811 0.0
2.09499 -2.61004 0.0
-0.10847 -2.04633 0.0
-0.010679 -2.58366 0.0
0.966354 -2.51953 0.0
1.01269 -2.45496 0.0
0.977955 -1.9125 0.0
0.556838 -1.88873 0.0
0.0542085 -1.89109 0.0
-1.09817 2.48108 0.0
-1.06451 2.54046 0.0
-1.08704 3.08803 0.0
-1.95697 3.02405 0.0
-2.09307 2.54842 0.0
0.0303297 2.60752 0.0
0.00881347 3.07045 0.0
-0.982809 3.09321 0.0
-0.96028 2.54564 0.0
-2.18272 -2.66637 0.0
-2.05047 -3.13457 0.0
-1.22263 -3.20307 0.0
-1.20839 -2.70483 0.0
-1.25835 -2.58166 0.0
-0.147678 -2.65013 0.0
-0.121876 -2.59745 0.0
-0.219667 -2.06012 0.0
-0.671735 -2.05768 0.0
-1.12671 -2.06865 0.0
-1.15891 -2.52897 0.0
-1.10894 -2.65215 0.0
0.524949 -0.744415 0.0
0.582104 -0.760517 0.0
1.11049 -0.721485 0.0
1.15585 0.143673 0.0
0.753643 0.201726 0.0
0.576808 0.218999 0.0
1.11376 -0.82493 0.0
0.585382 -0.863962 0.0
0.5978 -1.7977 0.0
1.01892 -1.82147 0.0
1.11013 -1.74854 0.0
1.17662 -0.907623 0.0
1.6933 -0.784502 0.0
1.7416 -0.76891 0.0
1.73822 0.17007 0.0
1.31361 0.212521 0.0
1.21896 0.140646 0.0
1.1736 -0.724512 0.0
1.23645 -0.807206 0.0
2.2906 2.35137 0.0
2.23997 2.56678 0.0
1.27354 2.51136 0.0
1.24637 2.07646 0.0
1.33381 2.01034 0.0
2.18467 2.02094 0.0
-0.481305 0.901521 0.0
-0.538936 0.91081 0.0
-1.06073 0.871577 0.0
-1.10071 0.0833686 0.0
-0.711515 0.00901559 0.0
-0.523357 0.000576098 0.0
-1.25888 -1.03266 0.0
-0.796879 -1.01388 0.0
-0.735965 -0.0911848 0.0
-1.12516 -0.0168317 0.0
-1.25334 -0.109405 0.0
-1.32607 -0.934248 0.0
-2.99685 0.756086 0.0
-3.57112 0.73974 0.0
-3.54461 -0.0333278 0.0
-3.065 -0.0605824 0.0
-3.01127 -0.0632624 0.0
-1.72826 0.928085 0.0
-1.78537 0.928854 0.0
-2.29561 0.918305 0.0
-2.35702 0.797747 0.0
-2.25708 0.109951 0.0
-1.86278 0.0636098 0.0
-1.77022 0.0605035 0.0
0.141619 2.61015 0.0
0.165561 2.56902 0.0
1.13529 2.66976 0.0
1.14066 3.10873 0.0
0.120103 3.07308 0.0
-0.724636 -1.12805 0.0
-0.793379 -1.11556 0.0
-1.25538 -1.13435 0.0
-1.30057 -1.88014 0.0
-1.1608 -1.98818 0.0
-0.705824 -1.97721 0.0
1.69323 -0.888203 0.0
1.23637 -0.910906 0.0
1.16988 -1.75182 0.0
1.75797 -1.76222 0.0
-1.0646 0.966799 0.0
-0.542807 1.00603 0.0
-0.561644 1.86274 0.0
-0.979918 1.86972 0.0
-1.06851 1.7986 0.0
-1.11886 1.04206 0.0
3.0246 0.064074 0.0
3.08348 0.0544695 0.0
3.59941 0.0695893 0.0
3.6397 0.781111 0.0
3.04452 0.830555 0.0
3.60164 -0.0168842 0.0
3.08571 -0.032004 0.0
3.07291 -0.826339 0.0
3.61789 -0.823881 0.0
-1.85444 -1.89711 0.0
-1.36117 -1.86904 0.0
-1.31598 -1.12325 0.0
-1.38317 -1.02484 0.0
-1.85701 -1.00835 0.0
-2.99383 0.84228 0.0
-2.94494 0.85363 0.0
-2.99476 1.63493 0.0
-3.48168 1.62626 0.0
-3.5681 0.825933 0.0
-1.90843 -0.905497 0.0
-1.85792 -0.91324 0.0
-1.38408 -0.929724 0.0
-1.31135 -0.104882 0.0
-1.7285 -0.0408912 0.0
-1.82106 -0.0377849 0.0
2.95293 -0.920086 0.0
2.44847 -0.923296 0.0
2.36794 -1.63395 0.0
2.96809 -1.6863 0.0
1.23827 1.18296 0.0
0.804635 1.15267 0.0
0.773736 0.301411 0.0
1.17594 0.243358 0.0
1.2706 0.315232 0.0
1.29122 1.10237 0.0
3.02296 1.67167 0.0
2.43871 1.70564 0.0
2.41175 1.14719 0.0
2.47151 0.970598 0.0
2.93313 0.928339 0.0
-2.29522 1.00626 0.0
-1.78497 1.01681 0.0
-1.75219 1.79729 0.0
-2.16357 1.7962 0.0
-2.27477 1.65775 0.0
0.718301 1.23948 0.0
0.79792 1.24473 0.0
1.23156 1.27502 0.0
1.25442 1.94609 0.0
1.16698 2.01221 0.0
0.688464 2.01288 0.0
-3.57946 -0.942335 0.0
-3.07404 -0.949837 0.0
-3.06906 -0.15054 0.0
-3.54867 -0.123285 0.0
</DataArray>
</Points>
<Cells>
<DataArray type="Int32" Name="connectivity" format="ascii">
0 1 2 3 4 
5 6 7 8 9 
10 11 12 13 14 
15 16 17 18 19 20 21 
22 23 24 25 26 
27 28 29 30 31 32 
33 34 35 36 37 38 
39 40 41 42 43 44 
45 46 47 48 49 50 
51 52 53 54 55 56 57 
58 59 60 61 62 63 64 65 
66 67 68 69 70 71 
72 73 74 75 76 
77 78 79 80 81 82 
83 84 85 86 87 88 
89 90 91 92 93 
94 95 96 97 98 99 100 
101 102 103 104 105 
106 107 108 109 110 
111 112 113 114 115 116 
117 118 119 120 121 122 123 
124 125 126 127 128 129 130 
131 132 133 134 
135 136 137 138 139 
140 141 142 143 144 
145 146 147 148 149 
150 151 152 153 154 155 156 
157 158 159 160 161 
162 163 164 165 166 167 
168 169 170 171 172 
173 174 175 176 177 
178 179 180 181 182 183 
184 185 186 187 188 189 190 
191 192 193 194 195 196 
197 198 199 200 201 202 203 
204 205 206 207 208 
209 210 211 212 213 
214 215 216 217 218 
219 220 221 222 223 
224 225 226 227 228 229 
230 231 232 233 234 
235 236 237 238 239 240 241 
242 243 244 245 246 
247 248 249 250 
251 252 253 254 255 
256 257 258 259 260 261 262 
263 264 265 266 267 268 
269 270 271 272 273 274 
275 276 277 278 279 280 281 
282 283 284 285 286 287 
288 289 290 291 292 293 
294 295 296 297 298 299 
300 301 302 303 304 
305 306 307 308 309 310 311 
312 313 314 315 316 
317 318 319 320 321 322 
323 324 325 326 
327 328 329 330 331 332 
333 334 335 336 337 
338 339 340 341 
342 343 344 345 346 
347 348 349 350 351 
352 353 354 355 356 357 
358 359 360 361 
362 363 364 365 366 367 
368 369 370 371 372 
373 374 375 376 377 
378 379 380 381 382 383 
384 385 386 387 
</DataArray>
<DataArray type="Int32" Name="offsets" format="ascii">
5 10 15 22 27 33 39 45 51 58 66 72 77 83 89 94 101 106 111 117 124 131 135 140 145 150 157 162 168 173 178 184 191 197 204 209 214 219 224 230 235 242 247 251 256 263 269 275 282 288 294 300 305 312 317 323 327 333 338 342 347 352 358 362 368 373 378 384 388 
</DataArray>
<DataArray type="UInt8" Name="types" format="ascii">
7 7 7 7 7 7 7 7 7 7 7 7 7 7 7 7 7 7 7 7 7 7 7 7 7 7 7 7 7 7 7 7 7 7 7 7 7 7 7 7 7 7 7 7 7 7 7 7 7 7 7 7 7 7 7 7 7 7 7 7 7 7 7 7 7 7 7 7 7 
</DataArray>
</Cells>
<CellData Scalars="cell variable 4" Vectors="cell vector">
<DataArray type="Float64" NumberOfComponents="3" Name="cell vector" format="ascii">
0 1 1
0 1 1
0 1 1
0 1 1
0 1 1
0 1 1
0 1 1
0 1 1
0 1 1
0 1 1
0 1 1
0 1 1
0 1 1
0 1 1
0 1 1
0 1 1
0 1 1
0 1 1
0 1 1
0 1 1
0 1 1
0 1 1
0 1 1
0 1 1
0 1 1
0 1 1
0 1 1
0 1 1
0 1 1
0 1 1
0 1 1
0 1 1
0 1 1
0 1 1
0 1 1
0 1 1
0 1 1
0 1 1
0 1 1
0 1 1
0 1 1
0 1 1
0 1 1
0 1 1
0 1 1
0 1 1
0 1 1
0 1 1
0 1 1
0 1 1
0 1 1
0 1 1
0 1 1
0 1 1
0 1 1
0 1 1
0 1 1
0 1 1
0 1 1
0 1 1
0 1 1
0 1 1
0 1 1
0 1 1
0 1 1
0 1 1
0 1 1
0 1 1
0 1 1
</DataArray>
<DataArray type="Float64" Name="cell vector length" format="ascii">
0.00824589 0.0158734 0.00821095 0.00694633 0.0335486 0.0158831 0.0151879 0.0159986 0.0082692 0.0159227 0.0151643 0.0135067 0.0163892 0.0315349 0.030528 0.0301485 0.00853959 0.00855353 0.00773095 0.0140381 0.0168507 0.0162469 0.0151805 0.0145673 0.015113 0.0159922 0.0158835 0.00869649 0.0343024 0.00838279 0.0300517 0.00781304 0.00798901 0.00829173 0.00859542 0.0308792 0.00746391 0.0295468 0.0307427 0.0142565 0.0160336 0.0161594 0.0155161 0.0147812 0.015296 0.0158358 0.00850399 0.00828801 0.00854453 0.0149029 0.00802476 0.00831762 0.0155169 0.00802229 0.0148488 0.00851447 0.00772596 0.00782106 0.0156098 0.0152938 0.00846531 0.0161269 0.00838723 0.0148475 0.00729125 0.0150159 0.00719487 0.00735411 0.0146936 
</DataArray>
<DataArray type="Float64" Name="cell variable 4" format="ascii">
0 0 0 0 0 0 0 0 0 0 0 0 0 0 0 0 0 0 0 0 0 0 0 0 0 0 0 0 0 0 0 0 0 0 0 0 0 0 0 0 0 0 0 0 0 0 0 0 0 0 0 0 0 0 0 0 0 0 0 0 0 0 0 0 0 0 0 0 0 
</DataArray>
<DataArray type="Float64" Name="cell variable 5" format="ascii">
0 0 0 0 0 0 0 0 0 0 0 0 0 0 0 0 0 0 0 0 0 0 0 0 0 0 0 0 0 0 0 0 0 0 0 0 0 0 0 0 0 0 0 0 0 0 0 0 0 0 0 0 0 0 0 0 0 0 0 0 0 0 0 0 0 0 0 0 0 
</DataArray>
<DataArray type="Float64" Name="cell variable 6" format="ascii">
0 0 0 0 0 0 0 0 0 0 0 0 0 0 0 0 0 0 0 0 0 0 0 0 0 0 0 0 0 0 0 0 0 0 0 0 0 0 0 0 0 0 0 0 0 0 0 0 0 0 0 0 0 0 0 0 0 0 0 0 0 0 0 0 0 0 0 0 0 
</DataArray>
<DataArray type="Float64" Name="cell variable 7" format="ascii">
0 0 0 0 0 0 0 0 0 0 0 0 0 0 0 0 0 0 0 0 0 0 0 0 0 0 0 0 0 0 0 0 0 0 0 0 0 0 0 0 0 0 0 0 0 0 0 0 0 0 0 0 0 0 0 0 0 0 0 0 0 0 0 0 0 0 0 0 0 
</DataArray>
<DataArray type="Float64" Name="cell variable 8" format="ascii">
0 0 0 0 0 0 0 0 0 0 0 0 0 0 0 0 0 0 0 0 0 0 0 0 0 0 0 0 0 0 0 0 0 0 0 0 0 0 0 0 0 0 0 0 0 0 0 0 0 0 0 0 0 0 0 0 0 0 0 0 0 0 0 0 0 0 0 0 0 
</DataArray>
</CellData>
</Piece>
</UnstructuredGrid>
</VTKFile>
