<VTKFile type="UnstructuredGrid" version="0.1">
<UnstructuredGrid>
<Piece  NumberOfPoints="      28" NumberOfCells="       6">
<Points>
<DataArray type="Float64" NumberOfComponents="3" format="ascii">
-0.0543139 -0.937747 0.0
-0.0893884 -0.0503715 0.0
-0.510569 -0.054495 0.0
-1.00684 -0.061332 0.0
-0.955898 -0.941315 0.0
0.0227289 -0.934308 0.0
0.466144 -0.964717 0.0
0.499974 -0.015716 0.0
0.0606604 0.0247104 0.0
-0.0123456 -0.0469329 0.0
-0.482531 0.0431885 0.0
-0.0613509 0.047312 0.0
0.0116551 0.118955 0.0
-0.0214528 0.915741 0.0
-0.485023 0.925857 0.0
0.0565449 0.917855 0.0
0.0896528 0.121069 0.0
0.528966 0.0806426 0.0
1.00956 0.0561663 0.0
0.953787 0.928288 0.0
0.518402 -0.967073 0.0
0.973538 -0.932125 0.0
1.03282 -0.0425485 0.0
0.552232 -0.0180722 0.0
-1.03115 0.0352521 0.0
-0.534872 0.042089 0.0
-0.537365 0.924758 0.0
-0.972381 0.915397 0.0
</DataArray>
</Points>
<Cells>
<DataArray type="Int32" Name="connectivity" format="ascii">
0 1 2 3 4 
5 6 7 8 9 
10 11 12 13 14 
15 16 17 18 19 
20 21 22 23 
24 25 26 27 
</DataArray>
<DataArray type="Int32" Name="offsets" format="ascii">
5 10 15 20 24 28 
</DataArray>
<DataArray type="UInt8" Name="types" format="ascii">
7 7 7 7 7 7 
</DataArray>
</Cells>
<CellData Scalars="cell variable 4" Vectors="cell vector">
<DataArray type="Float64" NumberOfComponents="3" Name="cell vector" format="ascii">
0 1 1
0 1 1
0 1 1
0 1 1
0 1 1
0 1 1
</DataArray>
<DataArray type="Float64" Name="cell vector length" format="ascii">
0.250128 0.131868 0.124818 0.237867 0.130265 0.125054 
</DataArray>
<DataArray type="Float64" Name="cell variable 4" format="ascii">
0 0 0 0 0 0 
</DataArray>
<DataArray type="Float64" Name="cell variable 5" format="ascii">
0 0 0 0 0 0 
</DataArray>
<DataArray type="Float64" Name="cell variable 6" format="ascii">
0 0 0 0 0 0 
</DataArray>
<DataArray type="Float64" Name="cell variable 7" format="ascii">
0 0 0 0 0 0 
</DataArray>
<DataArray type="Float64" Name="cell variable 8" format="ascii">
0 0 0 0 0 0 
</DataArray>
</CellData>
</Piece>
</UnstructuredGrid>
</VTKFile>
