<VTKFile type="UnstructuredGrid" version="0.1">
<UnstructuredGrid>
<Piece  NumberOfPoints="      88" NumberOfCells="      62">
<Points>
<DataArray type="Float64" NumberOfComponents="3" format="ascii">
-1.484 -1.40641 0 
1.48132 -1.39308 0 
-1.46659 1.36037 0 
1.48948 1.37818 0 
-0.00529788 -1.44934 0 
0.0141665 1.3986 0 
-0.0717805 -0.0201661 0 
-1.56511 -0.0257556 0 
0.0882393 0.117976 0 
1.57818 0.0073083 0 
0.784938 -1.46804 0 
0.879777 0.00517476 0 
-0.8566 0.0220377 0 
-0.808626 1.42487 0 
-0.924525 -0.0429192 0 
-0.837275 -1.47065 0 
0.896775 1.43031 0 
0.823134 0.0644287 0 
-0.0143438 -0.713669 0 
0.833019 -0.695325 0 
-0.886275 -0.771196 0 
-0.0429336 -0.787162 0 
0.0262138 0.736315 0 
-0.839718 0.712712 0 
0.0380534 0.80433 0 
0.869781 0.781087 0 
-0.879632 -0.0776997 0.0
-0.845206 -0.733149 0.0
-0.0861991 -0.747518 0.0
-0.0604682 -0.681374 0.0
-0.112161 -0.057222 0.0
-0.818499 -0.0192386 0.0
0.00093216 -0.816012 0.0
0.0348043 -1.41197 0.0
0.746016 -1.4288 0.0
0.78929 -0.733359 0.0
0.026663 -0.749868 0.0
0.0402004 0.142254 0.0
-0.0156225 0.698759 0.0
-0.794961 0.677516 0.0
-0.810155 0.0559093 0.0
-0.103817 0.0179259 0.0
0.0796295 0.768908 0.0
0.0689738 0.707694 0.0
0.124797 0.151189 0.0
0.786202 0.102997 0.0
0.828185 0.747989 0.0
0.824218 -1.39235 0.0
1.45096 -1.32489 0.0
1.53813 -0.0645373 0.0
0.909574 -0.0664575 0.0
0.867492 -0.696908 0.0
-0.949493 0.0284672 0.0
-0.88836 0.0869284 0.0
-0.873167 0.708535 0.0
-0.845184 1.34948 0.0
-1.43735 1.29143 0.0
-1.52602 0.0439144 0.0
-0.952321 -0.11233 0.0
-1.52885 -0.096883 0.0
-1.45585 -1.33947 0.0
-0.873796 -1.39729 0.0
-0.917896 -0.767779 0.0
1.46017 1.30811 0.0
0.926735 1.35503 0.0
0.902441 0.770723 0.0
0.860458 0.125731 0.0
0.911437 0.0724023 0.0
1.53999 0.0743225 0.0
-0.0243223 -0.0484652 0.0
0.0273707 -0.672617 0.0
0.789998 -0.656109 0.0
0.832079 -0.0256585 0.0
0.781101 0.0276701 0.0
0.119695 0.0758627 0.0
-0.842328 -0.805975 0.0
-0.798228 -1.43548 0.0
-0.049449 -1.4163 0.0
-0.0833212 -0.820345 0.0
-0.016801 0.769145 0.0
-0.00614537 0.830359 0.0
-0.0276436 1.3652 0.0
-0.768157 1.38884 0.0
-0.79614 0.747902 0.0
0.0588485 1.36941 0.0
0.0803467 0.834565 0.0
0.828902 0.813647 0.0
0.853197 1.39795 0.0
</DataArray>
</Points>
<Cells>
<DataArray type="Int32" Name="connectivity" format="ascii">
14 20 27 26 20 21 28 27 21 18 29 28 18 6 30 29 6 12 31 30 12 14 26 31 21 4 33 32 4 10 34 33 10 19 35 34 19 18 36 35 18 21 32 36 8 22 38 37 22 23 39 38 23 12 40 39 12 6 41 40 6 8 37 41 24 22 43 42 22 8 44 43 8 17 45 44 17 25 46 45 25 24 42 46 10 1 48 47 1 9 49 48 9 11 50 49 11 19 51 50 19 10 47 51 14 12 53 52 12 23 54 53 23 13 55 54 13 2 56 55 2 7 57 56 7 14 52 57 14 7 59 58 7 0 60 59 0 15 61 60 15 20 62 61 20 14 58 62 3 16 64 63 16 25 65 64 25 17 66 65 17 11 67 66 11 9 68 67 9 3 63 68 6 18 70 69 18 19 71 70 19 11 72 71 11 17 73 72 17 8 74 73 8 6 69 74 20 15 76 75 15 4 77 76 4 21 78 77 21 20 75 78 22 24 80 79 24 5 81 80 5 13 82 81 13 23 83 82 23 22 79 83 5 24 85 84 24 25 86 85 25 16 87 86 16 5 84 87 
</DataArray>
<DataArray type="Int32" Name="offsets" format="ascii">
4 8 12 16 20 24 28 32 36 40 44 48 52 56 60 64 68 72 76 80 84 88 92 96 100 104 108 112 116 120 124 128 132 136 140 144 148 152 156 160 164 168 172 176 180 184 188 192 196 200 204 208 212 216 220 224 228 232 236 240 244 248 
</DataArray>
<DataArray type="UInt8" Name="types" format="ascii">
7 7 7 7 7 7 7 7 7 7 7 7 7 7 7 7 7 7 7 7 7 7 7 7 7 7 7 7 7 7 7 7 7 7 7 7 7 7 7 7 7 7 7 7 7 7 7 7 7 7 7 7 7 7 7 7 7 7 7 7 7 7 
</DataArray>
</Cells>
<CellData Scalars="wall variable 0">
<DataArray type="Float64" Name="wall length" format="ascii">
0.622389 0.77824 0.0665058 0.578083 0.643116 0.0759313 0.586152 0.655261 0.6906 0.777026 0.0665058 0.517737 0.807702 0.588481 0.643116 0.165362 0.0588778 0.517737 0.602121 0.61919 0.795292 0.612715 1.2155 0.62348 0.597596 0.6906 0.0759313 0.588481 0.637574 0.579277 1.20361 0.572276 0.572276 1.19979 0.57094 0.627594 0.622389 0.522073 0.582861 0.61919 0.0661729 0.62348 1.19109 0.578083 0.777026 0.597596 0.0661729 0.602121 0.165362 0.627594 0.692369 0.586152 0.77824 0.0588778 0.526495 0.684435 0.637574 0.807702 0.526495 0.795292 0.582861 0.737558 
</DataArray>
<DataArray type="Float64" Name="wall variable 0" format="ascii">
0 0 0 0 0 0 0 0 0 0 0 0 0 0 0 0 0 0 0 0 0 0 0 0 0 0 0 0 0 0 0 0 0 0 0 0 0 0 0 0 0 0 0 0 0 0 0 0 0 0 0 0 0 0 0 0 0 0 0 0 0 0 
</DataArray>
<DataArray type="Float64" Name="wall variable 1" format="ascii">
0 0 0 0 0 0 0 0 0 0 0 0 0 0 0 0 0 0 0 0 0 0 0 0 0 0 0 0 0 0 0 0 0 0 0 0 0 0 0 0 0 0 0 0 0 0 0 0 0 0 0 0 0 0 0 0 0 0 0 0 0 0 
</DataArray>
</CellData>
</Piece>
</UnstructuredGrid>
</VTKFile>
