<VTKFile type="UnstructuredGrid" version="0.1">
<UnstructuredGrid>
<Piece  NumberOfPoints="     111" NumberOfCells="      21">
<Points>
<DataArray type="Float64" NumberOfComponents="3" format="ascii">
-1.21131 -0.942776 0.0
-0.753121 -0.949422 0.0
-0.711478 -0.00211014 0.0
-1.20382 0.0424016 0.0
-1.28362 -0.0545649 0.0
-1.26993 -0.873134 0.0
0.467462 -0.967921 0.0
0.000207738 -0.980926 0.0
-0.072628 -1.05496 0.0
-0.0158413 -1.78037 0.0
0.496453 -1.80162 0.0
-0.0418481 1.04382 0.0
-0.55915 1.01691 0.0
-0.570834 0.114256 0.0
-0.148392 0.0760877 0.0
0.0661207 0.272112 0.0
0.553081 0.225621 0.0
0.604024 0.233676 0.0
0.608457 1.11723 0.0
0.0800356 1.12495 0.0
0.0199405 1.05825 0.0
0.127909 0.286546 0.0
1.23494 -0.873621 0.0
1.17562 -0.940168 0.0
1.09109 -1.77279 0.0
1.87802 -1.69279 0.0
2.01286 -0.974542 0.0
-1.27034 0.13739 0.0
-1.29518 0.921685 0.0
-2.05692 0.948579 0.0
-2.04914 0.0736348 0.0
-1.35013 0.0404239 0.0
-1.3405 -0.874711 0.0
-1.35419 -0.0561419 0.0
-2.0532 -0.0229311 0.0
-2.06892 -0.913964 0.0
2.01853 0.117445 0.0
2.03744 0.942095 0.0
1.28497 0.958948 0.0
1.18909 0.204962 0.0
1.25561 0.114959 0.0
0.00230479 -0.877918 0.0
0.469559 -0.864913 0.0
0.519897 -0.852456 0.0
0.543128 0.120294 0.0
0.117957 0.181219 0.0
-0.0965553 -0.0148063 0.0
-1.17513 -1.03912 0.0
-1.11877 -1.78998 0.0
-0.102107 -1.784 0.0
-0.158893 -1.05859 0.0
-0.716937 -1.04576 0.0
-0.0717025 1.13551 0.0
-0.0116075 1.2022 0.0
-0.059477 1.84916 0.0
-1.07224 1.85046 0.0
-1.13099 1.08691 0.0
-0.589004 1.10861 0.0
0.0587295 1.85507 0.0
0.106599 1.20811 0.0
0.63502 1.2004 0.0
1.10711 1.17783 0.0
1.13247 1.87062 0.0
1.25713 0.0215011 0.0
1.24666 -0.782106 0.0
2.02458 -0.883027 0.0
2.02004 0.023988 0.0
-1.28699 1.01322 0.0
-1.23218 1.08055 0.0
-1.17342 1.8441 0.0
-1.91445 1.77165 0.0
-2.04873 1.04012 0.0
2.03344 1.03145 0.0
1.89632 1.7922 0.0
1.23072 1.85936 0.0
1.20537 1.16657 0.0
1.28097 1.0483 0.0
-1.27251 -1.03333 0.0
-1.33113 -0.963691 0.0
-2.05955 -1.00294 0.0
-1.94027 -1.7091 0.0
-1.21615 -1.78419 0.0
0.583923 -0.85399 0.0
1.11108 -0.844613 0.0
1.1704 -0.778066 0.0
1.18087 0.0255411 0.0
1.11434 0.115545 0.0
0.658097 0.126815 0.0
0.607154 0.11876 0.0
-0.691856 -0.954438 0.0
-0.133813 -0.96727 0.0
-0.0609771 -0.893237 0.0
-0.159837 -0.0301258 0.0
-0.58228 0.0080422 0.0
-0.650213 -0.00712663 0.0
-0.62289 1.01779 0.0
-1.16488 0.996094 0.0
-1.21969 0.928769 0.0
-1.19485 0.144474 0.0
-0.702508 0.0999623 0.0
-0.634574 0.115131 0.0
0.661427 0.230863 0.0
1.11767 0.219594 0.0
1.21355 0.973579 0.0
1.13795 1.09185 0.0
0.66586 1.11442 0.0
0.575701 -0.952626 0.0
0.525362 -0.965083 0.0
0.554354 -1.79879 0.0
1.01833 -1.77587 0.0
1.10286 -0.94325 0.0
</DataArray>
</Points>
<Cells>
<DataArray type="Int32" Name="connectivity" format="ascii">
0 1 2 3 4 5 
6 7 8 9 10 
11 12 13 14 15 
16 17 18 19 20 21 
22 23 24 25 26 
27 28 29 30 31 
32 33 34 35 
36 37 38 39 40 
41 42 43 44 45 46 
47 48 49 50 51 
52 53 54 55 56 57 
58 59 60 61 62 
63 64 65 66 
67 68 69 70 71 
72 73 74 75 76 
77 78 79 80 81 
82 83 84 85 86 87 88 
89 90 91 92 93 94 
95 96 97 98 99 100 
101 102 103 104 105 
106 107 108 109 110 
</DataArray>
<DataArray type="Int32" Name="offsets" format="ascii">
6 11 16 22 27 32 36 41 47 52 58 63 67 72 77 82 89 95 101 106 111 
</DataArray>
<DataArray type="UInt8" Name="types" format="ascii">
7 7 7 7 7 7 7 7 7 7 7 7 7 7 7 7 7 7 7 7 7 
</DataArray>
</Cells>
<CellData Scalars="cell variable 4" Vectors="cell vector">
<DataArray type="Float64" NumberOfComponents="3" Name="cell vector" format="ascii">
0 1 1
0 1 1
0 1 1
0 1 1
0 1 1
0 1 1
0 1 1
0 1 1
0 1 1
0 1 1
0 1 1
0 1 1
0 1 1
0 1 1
0 1 1
0 1 1
0 1 1
0 1 1
0 1 1
0 1 1
0 1 1
</DataArray>
<DataArray type="Float64" Name="cell vector length" format="ascii">
0.0336938 0.0320328 0.0318698 0.0290556 0.067851 0.06264 0.0599332 0.0626166 0.0337577 0.062235 0.0617085 0.0578257 0.0624139 0.0624141 0.0600748 0.0608911 0.0331929 0.0333746 0.0312398 0.0282946 0.0328843 
</DataArray>
<DataArray type="Float64" Name="cell variable 4" format="ascii">
0 0 0 0 0 0 0 0 0 0 0 0 0 0 0 0 0 0 0 0 0 
</DataArray>
<DataArray type="Float64" Name="cell variable 5" format="ascii">
0 0 0 0 0 0 0 0 0 0 0 0 0 0 0 0 0 0 0 0 0 
</DataArray>
<DataArray type="Float64" Name="cell variable 6" format="ascii">
0 0 0 0 0 0 0 0 0 0 0 0 0 0 0 0 0 0 0 0 0 
</DataArray>
<DataArray type="Float64" Name="cell variable 7" format="ascii">
0 0 0 0 0 0 0 0 0 0 0 0 0 0 0 0 0 0 0 0 0 
</DataArray>
<DataArray type="Float64" Name="cell variable 8" format="ascii">
0 0 0 0 0 0 0 0 0 0 0 0 0 0 0 0 0 0 0 0 0 
</DataArray>
</CellData>
</Piece>
</UnstructuredGrid>
</VTKFile>
