<VTKFile type="UnstructuredGrid" version="0.1">
<UnstructuredGrid>
<Piece  NumberOfPoints="      14" NumberOfCells="       8">
<Points>
<DataArray type="Float64" NumberOfComponents="3" format="ascii">
-0.62226 -0.62232 0 
0.622262 -0.622321 0 
-0.622262 0.622321 0 
0.62226 0.62232 0 
0.00190998 -0.622684 0 
-0.00190998 0.622684 0 
-0.591144 -0.560152 0.0
-0.0293909 -0.560479 0.0
-0.0328289 0.560352 0.0
-0.591145 0.560025 0.0
0.0328289 -0.560352 0.0
0.591145 -0.560025 0.0
0.591144 0.560152 0.0
0.0293909 0.560479 0.0
</DataArray>
</Points>
<Cells>
<DataArray type="Int32" Name="connectivity" format="ascii">
0 4 7 6 4 5 8 7 5 2 9 8 2 0 6 9 4 1 11 10 1 3 12 11 3 5 13 12 5 4 10 13 
</DataArray>
<DataArray type="Int32" Name="offsets" format="ascii">
4 8 12 16 20 24 28 32 
</DataArray>
<DataArray type="UInt8" Name="types" format="ascii">
7 7 7 7 7 7 7 7 
</DataArray>
</Cells>
<CellData Scalars="wall variable 0">
<DataArray type="Float64" Name="wall length" format="ascii">
0.573081 1.14347 0.569575 1.14272 0.569575 1.14272 0.573081 1.14347 
</DataArray>
<DataArray type="Float64" Name="wall variable 0" format="ascii">
0 0 0 0 0 0 0 0 
</DataArray>
<DataArray type="Float64" Name="wall variable 1" format="ascii">
0 0 0 0 0 0 0 0 
</DataArray>
</CellData>
</Piece>
</UnstructuredGrid>
</VTKFile>
