<VTKFile type="UnstructuredGrid" version="0.1">
<UnstructuredGrid>
<Piece  NumberOfPoints="     181" NumberOfCells="      34">
<Points>
<DataArray type="Float64" NumberOfComponents="3" format="ascii">
-1.538 -1.1851 0.0
-0.972886 -1.17502 0.0
-0.952286 -0.657577 0.0
-0.925896 -0.0247512 0.0
-1.53974 0.0414398 0.0
-1.64106 -0.0870398 0.0
-1.64063 -0.593746 0.0
-1.61861 -1.10183 0.0
0.589709 -1.24378 0.0
-0.0107906 -1.24042 0.0
-0.115614 -1.33072 0.0
-0.0382082 -2.17243 0.0
0.611956 -2.20981 0.0
0.0795615 0.299624 0.0
0.0182694 0.688448 0.0
-0.73834 0.637885 0.0
-0.750437 0.114359 0.0
-0.209885 0.045381 0.0
0.703068 0.259231 0.0
0.763677 0.291789 0.0
0.763691 1.36129 0.0
0.70312 1.39174 0.0
0.0995423 1.39075 0.0
0.0109933 1.31128 0.0
0.0961126 0.736907 0.0
0.157405 0.348082 0.0
1.43494 -1.59127 0.0
1.34047 -2.1716 0.0
2.25716 -2.06395 0.0
2.35947 -1.73142 0.0
-1.61906 0.129053 0.0
-1.66922 0.581672 0.0
-2.56043 0.568163 0.0
-2.51797 0.0485102 0.0
-1.72038 0.000573565 0.0
-1.72501 -0.566529 0.0
-1.72544 -0.0598227 0.0
-2.52303 -0.0118861 0.0
-2.54449 -0.569658 0.0
2.45402 0.11165 0.0
2.49725 0.590224 0.0
1.57775 0.65299 0.0
1.49514 0.224675 0.0
1.58086 0.103538 0.0
-0.0672315 -0.651801 0.0
-0.0059024 -1.1509 0.0
0.594597 -1.15425 0.0
0.653688 -1.11898 0.0
0.677474 -0.545033 0.0
0.66999 -0.481099 0.0
-0.0759964 -0.516326 0.0
-1.44629 -2.16069 0.0
-0.873251 -2.21999 0.0
-0.863809 -1.34102 0.0
-0.961129 -1.29087 0.0
-1.52624 -1.30095 0.0
-0.66719 1.40322 0.0
-0.0671845 1.4079 0.0
0.0213645 1.48737 0.0
-0.0479322 2.23487 0.0
-0.716045 2.27755 0.0
0.722242 2.28697 0.0
0.0265291 2.24063 0.0
0.0958259 1.49313 0.0
0.699404 1.49412 0.0
2.43949 -1.11947 0.0
2.49026 -0.552632 0.0
1.59838 -0.542728 0.0
1.55585 -1.02291 0.0
-1.62985 1.24889 0.0
-1.55353 1.33046 0.0
-1.4721 2.2054 0.0
-2.33271 2.10732 0.0
-2.49342 1.25975 0.0
2.45094 1.25752 0.0
2.28391 2.13662 0.0
1.50979 2.2208 0.0
1.49165 1.43349 0.0
1.60152 1.29522 0.0
-1.60852 -1.29356 0.0
-1.68913 -1.21029 0.0
-2.51026 -1.23748 0.0
-2.36799 -2.05558 0.0
-1.52857 -2.15329 0.0
1.50675 -0.542809 0.0
1.50051 -0.490511 0.0
0.757855 -0.544409 0.0
0.734069 -1.11836 0.0
1.38483 -1.10742 0.0
1.46423 -1.02299 0.0
-0.087008 -1.16647 0.0
-0.148337 -0.667369 0.0
-0.872846 -0.697353 0.0
-0.893446 -1.2148 0.0
-0.796126 -1.26495 0.0
-0.191832 -1.25677 0.0
-0.820577 0.759348 0.0
-0.808842 1.28635 0.0
-1.47626 1.26127 0.0
-1.55258 1.1797 0.0
-1.57482 0.737013 0.0
0.837141 0.287777 0.0
1.41169 0.270561 0.0
1.4943 0.698875 0.0
1.52415 1.20603 0.0
1.41428 1.3443 0.0
0.837156 1.35728 0.0
0.722392 -1.20439 0.0
0.663301 -1.23966 0.0
0.685548 -2.2057 0.0
1.25978 -2.15009 0.0
1.35426 -1.56977 0.0
1.37315 -1.19345 0.0
-0.799713 1.36395 0.0
-0.740972 1.39856 0.0
-0.789828 2.27289 0.0
-1.3857 2.21381 0.0
-1.46713 1.33888 0.0
-0.803442 -2.2248 0.0
-0.112299 -2.17936 0.0
-0.189705 -1.33765 0.0
-0.793999 -1.34584 0.0
1.42612 2.23493 0.0
0.793114 2.28391 0.0
0.770276 1.49106 0.0
0.830847 1.46061 0.0
1.40797 1.44762 0.0
-1.67061 0.641931 0.0
-1.66626 0.72659 0.0
-1.64401 1.16928 0.0
-2.50758 1.18014 0.0
-2.56182 0.628421 0.0
2.50202 0.647173 0.0
2.46179 1.17939 0.0
1.61237 1.21709 0.0
1.58252 0.709939 0.0
2.49035 -0.493718 0.0
2.45794 0.0530181 0.0
1.58478 0.0449061 0.0
1.59223 -0.431515 0.0
1.59847 -0.483814 0.0
-0.145992 -0.00425671 0.0
-0.0786828 -0.446273 0.0
0.667303 -0.411046 0.0
0.689118 0.161135 0.0
0.143455 0.249986 0.0
1.46719 -1.16309 0.0
1.4483 -1.53941 0.0
2.37282 -1.67955 0.0
2.43023 -1.17522 0.0
1.54658 -1.07866 0.0
1.50065 -0.423434 0.0
1.4932 0.0529873 0.0
1.40747 0.174124 0.0
0.832929 0.191341 0.0
0.772321 0.158782 0.0
0.750505 -0.413399 0.0
0.757989 -0.477333 0.0
-1.70202 -1.13299 0.0
-1.72404 -0.624908 0.0
-2.54351 -0.628038 0.0
-2.52315 -1.16019 0.0
0.0151231 0.752228 0.0
-0.0699962 1.3266 0.0
-0.670001 1.32192 0.0
-0.728743 1.28731 0.0
-0.740477 0.760316 0.0
-0.741486 0.701665 0.0
-0.151744 -0.601115 0.0
-0.160509 -0.465639 0.0
-0.227818 -0.0236236 0.0
-0.768369 0.045354 0.0
-0.849863 0.00172663 0.0
-0.876253 -0.631099 0.0
-0.821466 0.639959 0.0
-0.820457 0.69861 0.0
-1.5747 0.676275 0.0
-1.57906 0.591615 0.0
-1.5289 0.138996 0.0
-0.915057 0.0728053 0.0
-0.833563 0.116433 0.0
</DataArray>
</Points>
<Cells>
<DataArray type="Int32" Name="connectivity" format="ascii">
0 1 2 3 4 5 6 7 
8 9 10 11 12 
13 14 15 16 17 
18 19 20 21 22 23 24 25 
26 27 28 29 
30 31 32 33 34 
35 36 37 38 
39 40 41 42 43 
44 45 46 47 48 49 50 
51 52 53 54 55 
56 57 58 59 60 
61 62 63 64 
65 66 67 68 
69 70 71 72 73 
74 75 76 77 78 
79 80 81 82 83 
84 85 86 87 88 89 
90 91 92 93 94 95 
96 97 98 99 100 
101 102 103 104 105 106 
107 108 109 110 111 112 
113 114 115 116 117 
118 119 120 121 
122 123 124 125 126 
127 128 129 130 131 
132 133 134 135 
136 137 138 139 140 
141 142 143 144 145 
146 147 148 149 150 
151 152 153 154 155 156 157 
158 159 160 161 
162 163 164 165 166 167 
168 169 170 171 172 173 
174 175 176 177 178 179 180 
</DataArray>
<DataArray type="Int32" Name="offsets" format="ascii">
8 13 18 26 30 35 39 44 51 56 61 65 69 74 79 84 90 96 101 107 113 118 122 127 132 136 141 146 151 158 162 168 174 181 
</DataArray>
<DataArray type="UInt8" Name="types" format="ascii">
7 7 7 7 7 7 7 7 7 7 7 7 7 7 7 7 7 7 7 7 7 7 7 7 7 7 7 7 7 7 7 7 7 7 
</DataArray>
</Cells>
<CellData Scalars="cell variable 4" Vectors="cell vector">
<DataArray type="Float64" NumberOfComponents="3" Name="cell vector" format="ascii">
0 1 1
0 1 1
0 1 1
0 1 1
0 1 1
0 1 1
0 1 1
0 1 1
0 1 1
0 1 1
0 1 1
0 1 1
0 1 1
0 1 1
0 1 1
0 1 1
0 1 1
0 1 1
0 1 1
0 1 1
0 1 1
0 1 1
0 1 1
0 1 1
0 1 1
0 1 1
0 1 1
0 1 1
0 1 1
0 1 1
0 1 1
0 1 1
0 1 1
0 1 1
</DataArray>
<DataArray type="Float64" Name="cell vector length" format="ascii">
0.0336938 0.0320328 0.0162357 0.0290556 0.0335486 0.0314001 0.0298815 0.0316085 0.0165572 0.0312187 0.0299455 0.0283555 0.0312366 0.0624141 0.0600748 0.0608911 0.0162655 0.017068 0.0149258 0.0282946 0.0328843 0.031763 0.0310163 0.0294702 0.0312399 0.0310082 0.0311773 0.0172005 0.0343024 0.0169273 0.0300517 0.0156341 0.0163066 0.016314 
</DataArray>
<DataArray type="Float64" Name="cell variable 4" format="ascii">
0 0 0 0 0 0 0 0 0 0 0 0 0 0 0 0 0 0 0 0 0 0 0 0 0 0 0 0 0 0 0 0 0 0 
</DataArray>
<DataArray type="Float64" Name="cell variable 5" format="ascii">
0 0 0 0 0 0 0 0 0 0 0 0 0 0 0 0 0 0 0 0 0 0 0 0 0 0 0 0 0 0 0 0 0 0 
</DataArray>
<DataArray type="Float64" Name="cell variable 6" format="ascii">
0 0 0 0 0 0 0 0 0 0 0 0 0 0 0 0 0 0 0 0 0 0 0 0 0 0 0 0 0 0 0 0 0 0 
</DataArray>
<DataArray type="Float64" Name="cell variable 7" format="ascii">
0 0 0 0 0 0 0 0 0 0 0 0 0 0 0 0 0 0 0 0 0 0 0 0 0 0 0 0 0 0 0 0 0 0 
</DataArray>
<DataArray type="Float64" Name="cell variable 8" format="ascii">
0 0 0 0 0 0 0 0 0 0 0 0 0 0 0 0 0 0 0 0 0 0 0 0 0 0 0 0 0 0 0 0 0 0 
</DataArray>
</CellData>
</Piece>
</UnstructuredGrid>
</VTKFile>
