<VTKFile type="UnstructuredGrid" version="0.1">
<UnstructuredGrid>
<Piece  NumberOfPoints="     147" NumberOfCells="      28">
<Points>
<DataArray type="Float64" NumberOfComponents="3" format="ascii">
-1.47562 -1.17422 0.0
-0.943844 -1.16392 0.0
-0.897975 -0.0837852 0.0
-1.47193 -0.0255418 0.0
-1.56709 -0.143252 0.0
-1.54969 -1.09579 0.0
0.512344 -1.22667 0.0
-0.0465386 -1.22367 0.0
-0.141837 -1.30816 0.0
-0.0699225 -2.11547 0.0
0.536678 -2.15727 0.0
-0.100749 1.14764 0.0
-0.658609 1.14038 0.0
-0.714132 1.11099 0.0
-0.734866 0.069714 0.0
-0.232241 0.0113765 0.0
0.0347351 0.24519 0.0
0.616024 0.181218 0.0
0.673502 0.206649 0.0
0.674938 1.21075 0.0
0.616042 1.23191 0.0
0.0533091 1.23827 0.0
-0.0269211 1.16373 0.0
0.108563 0.261282 0.0
1.40186 -1.09462 0.0
1.32873 -1.17201 0.0
1.22547 -2.09205 0.0
2.10109 -1.99039 0.0
2.2512 -1.19031 0.0
-1.54643 0.0565306 0.0
-1.57168 0.479875 0.0
-2.43075 0.468362 0.0
-2.40713 -0.0188525 0.0
-1.64159 -0.06118 0.0
-1.62891 -1.09774 0.0
-1.64632 -0.145198 0.0
-2.41186 -0.102871 0.0
-2.42142 -1.12912 0.0
2.27099 0.0402876 0.0
2.29437 0.487729 0.0
1.41263 0.546766 0.0
1.35518 0.144514 0.0
1.43486 0.0341492 0.0
-0.11694 -0.542442 0.0
-0.0424691 -1.13843 0.0
0.516414 -1.14144 0.0
0.571722 -1.11049 0.0
0.590079 -0.508695 0.0
-1.39152 -2.10948 0.0
-0.851686 -2.15908 0.0
-0.840185 -1.31314 0.0
-0.933352 -1.2734 0.0
-1.46513 -1.2837 0.0
-0.657784 1.24807 0.0
-0.0999242 1.25532 0.0
-0.019694 1.32986 0.0
-0.0837032 2.04626 0.0
-0.70739 2.09018 0.0
0.637558 2.0859 0.0
-0.0142447 2.05119 0.0
0.0497645 1.33479 0.0
0.612498 1.32842 0.0
2.26606 -1.11376 0.0
2.28607 -0.579869 0.0
1.43406 -0.56721 0.0
1.41671 -1.01808 0.0
-1.56058 1.10739 0.0
-1.49185 1.18466 0.0
-1.41821 2.02578 0.0
-2.24173 1.93595 0.0
-2.39204 1.12333 0.0
2.27879 1.11926 0.0
2.12257 1.9626 0.0
1.38127 2.03953 0.0
1.36151 1.28237 0.0
1.45996 1.15048 0.0
-1.54345 -1.27717 0.0
-1.61751 -1.19874 0.0
-2.41002 -1.23013 0.0
-2.27407 -2.01366 0.0
-1.46984 -2.10295 0.0
0.646456 -1.0781 0.0
1.2573 -1.06349 0.0
1.33043 -0.986103 0.0
1.34778 -0.535237 0.0
1.35244 -0.043726 0.0
1.27276 0.0666388 0.0
0.73756 0.0821594 0.0
0.680082 0.0567293 0.0
0.664813 -0.476302 0.0
-0.871534 -1.17049 0.0
-0.778367 -1.21023 0.0
-0.214676 -1.20723 0.0
-0.119378 -1.12274 0.0
-0.193849 -0.526751 0.0
-0.245998 -0.113723 0.0
-0.748623 -0.0553854 0.0
-0.825664 -0.0903529 0.0
-0.789759 1.11112 0.0
-1.41731 1.08887 0.0
-1.48604 1.0116 0.0
-1.48674 0.516469 0.0
-1.46149 0.093125 0.0
-0.887535 0.0348816 0.0
-0.810493 0.0698492 0.0
0.741554 0.203205 0.0
1.27676 0.187685 0.0
1.33421 0.589937 0.0
1.38537 1.06579 0.0
1.28692 1.19767 0.0
0.74299 1.20731 0.0
0.63568 -1.19194 0.0
0.580372 -1.22289 0.0
0.604705 -2.15348 0.0
1.14327 -2.09737 0.0
1.24653 -1.17733 0.0
-0.782265 1.21451 0.0
-0.726742 1.24391 0.0
-0.776347 2.08602 0.0
-1.33617 2.03338 0.0
-1.40981 1.19225 0.0
-0.786164 -2.16328 0.0
-0.139058 -2.12165 0.0
-0.210972 -1.31434 0.0
-0.774663 -1.31734 0.0
1.30176 2.05227 0.0
0.70424 2.08338 0.0
0.67918 1.32591 0.0
0.738075 1.30475 0.0
1.282 1.29511 0.0
-1.57314 0.536388 0.0
-1.57244 1.03152 0.0
-2.4039 1.04745 0.0
-2.43221 0.524875 0.0
2.29912 0.541162 0.0
2.28738 1.04483 0.0
1.46855 1.07605 0.0
1.41738 0.600199 0.0
2.2859 -0.524687 0.0
2.27468 -0.0143786 0.0
1.43855 -0.020517 0.0
1.43388 -0.512028 0.0
-0.171466 -0.0640498 0.0
-0.119318 -0.477078 0.0
0.587702 -0.443331 0.0
0.602971 0.0897003 0.0
0.09551 0.169764 0.0
</DataArray>
</Points>
<Cells>
<DataArray type="Int32" Name="connectivity" format="ascii">
0 1 2 3 4 5 
6 7 8 9 10 
11 12 13 14 15 16 
17 18 19 20 21 22 23 
24 25 26 27 28 
29 30 31 32 33 
34 35 36 37 
38 39 40 41 42 
43 44 45 46 47 
48 49 50 51 52 
53 54 55 56 57 
58 59 60 61 
62 63 64 65 
66 67 68 69 70 
71 72 73 74 75 
76 77 78 79 80 
81 82 83 84 85 86 87 88 89 
90 91 92 93 94 95 96 97 
98 99 100 101 102 103 104 
105 106 107 108 109 110 
111 112 113 114 115 
116 117 118 119 120 
121 122 123 124 
125 126 127 128 129 
130 131 132 133 
134 135 136 137 
138 139 140 141 
142 143 144 145 146 
</DataArray>
<DataArray type="Int32" Name="offsets" format="ascii">
6 11 17 24 29 34 38 43 48 53 58 62 66 71 76 81 90 98 105 111 116 121 125 130 134 138 142 147 
</DataArray>
<DataArray type="UInt8" Name="types" format="ascii">
7 7 7 7 7 7 7 7 7 7 7 7 7 7 7 7 7 7 7 7 7 7 7 7 7 7 7 7 
</DataArray>
</Cells>
<CellData Scalars="cell variable 4" Vectors="cell vector">
<DataArray type="Float64" NumberOfComponents="3" Name="cell vector" format="ascii">
0 1 1
0 1 1
0 1 1
0 1 1
0 1 1
0 1 1
0 1 1
0 1 1
0 1 1
0 1 1
0 1 1
0 1 1
0 1 1
0 1 1
0 1 1
0 1 1
0 1 1
0 1 1
0 1 1
0 1 1
0 1 1
0 1 1
0 1 1
0 1 1
0 1 1
0 1 1
0 1 1
0 1 1
</DataArray>
<DataArray type="Float64" Name="cell vector length" format="ascii">
0.0336938 0.0320328 0.0318698 0.0290556 0.067851 0.0314001 0.0599332 0.0316085 0.0165572 0.0312187 0.0299455 0.0283555 0.0312366 0.0624141 0.0600748 0.0608911 0.0331929 0.0333746 0.0312398 0.0282946 0.0328843 0.031763 0.0310163 0.0294702 0.0312399 0.0310082 0.0311773 0.0172005 
</DataArray>
<DataArray type="Float64" Name="cell variable 4" format="ascii">
0 0 0 0 0 0 0 0 0 0 0 0 0 0 0 0 0 0 0 0 0 0 0 0 0 0 0 0 
</DataArray>
<DataArray type="Float64" Name="cell variable 5" format="ascii">
0 0 0 0 0 0 0 0 0 0 0 0 0 0 0 0 0 0 0 0 0 0 0 0 0 0 0 0 
</DataArray>
<DataArray type="Float64" Name="cell variable 6" format="ascii">
0 0 0 0 0 0 0 0 0 0 0 0 0 0 0 0 0 0 0 0 0 0 0 0 0 0 0 0 
</DataArray>
<DataArray type="Float64" Name="cell variable 7" format="ascii">
0 0 0 0 0 0 0 0 0 0 0 0 0 0 0 0 0 0 0 0 0 0 0 0 0 0 0 0 
</DataArray>
<DataArray type="Float64" Name="cell variable 8" format="ascii">
0 0 0 0 0 0 0 0 0 0 0 0 0 0 0 0 0 0 0 0 0 0 0 0 0 0 0 0 
</DataArray>
</CellData>
</Piece>
</UnstructuredGrid>
</VTKFile>
