<VTKFile type="UnstructuredGrid" version="0.1">
<UnstructuredGrid>
<Piece  NumberOfPoints="      14" NumberOfCells="       8">
<Points>
<DataArray type="Float64" NumberOfComponents="3" format="ascii">
-0.636797 -0.636864 0 
0.636798 -0.636865 0 
-0.636798 0.636865 0 
0.636797 0.636864 0 
0.00195465 -0.637226 0 
-0.00195465 0.637226 0 
-0.604954 -0.573243 0.0
-0.0300776 -0.573569 0.0
-0.0335959 0.573438 0.0
-0.604955 0.573114 0.0
0.0335959 -0.573438 0.0
0.604955 -0.573114 0.0
0.604954 0.573243 0.0
0.0300776 0.573569 0.0
</DataArray>
</Points>
<Cells>
<DataArray type="Int32" Name="connectivity" format="ascii">
0 4 7 6 4 5 8 7 5 2 9 8 2 0 6 9 4 1 11 10 1 3 12 11 3 5 13 12 5 4 10 13 
</DataArray>
<DataArray type="Int32" Name="offsets" format="ascii">
4 8 12 16 20 24 28 32 
</DataArray>
<DataArray type="UInt8" Name="types" format="ascii">
7 7 7 7 7 7 7 7 
</DataArray>
</Cells>
<CellData Scalars="wall variable 0">
<DataArray type="Float64" Name="wall length" format="ascii">
0.585662 1.16857 0.582079 1.16782 0.582079 1.16782 0.585662 1.16857 
</DataArray>
<DataArray type="Float64" Name="wall variable 0" format="ascii">
0 0 0 0 0 0 0 0 
</DataArray>
<DataArray type="Float64" Name="wall variable 1" format="ascii">
0 0 0 0 0 0 0 0 
</DataArray>
</CellData>
</Piece>
</UnstructuredGrid>
</VTKFile>
