<VTKFile type="UnstructuredGrid" version="0.1">
<UnstructuredGrid>
<Piece  NumberOfPoints="     116" NumberOfCells="      22">
<Points>
<DataArray type="Float64" NumberOfComponents="3" format="ascii">
-1.22635 -1.03782 0.0
-0.754259 -1.03782 0.0
-0.712008 -0.0698711 0.0
-1.21928 -0.0226693 0.0
-1.30191 -0.123393 0.0
-1.28816 -0.966911 0.0
0.510493 -1.07007 0.0
0.026222 -1.07789 0.0
-0.0511125 -1.15318 0.0
0.00938587 -1.89386 0.0
0.538764 -1.92698 0.0
-0.0184846 1.01005 0.0
-0.500833 0.985848 0.0
-0.553514 0.976607 0.0
-0.567036 0.0530122 0.0
-0.129821 0.0117383 0.0
0.0946112 0.214356 0.0
0.599013 0.164602 0.0
0.651189 0.176705 0.0
0.655141 1.08361 0.0
0.109442 1.09285 0.0
0.0455137 1.02484 0.0
0.15861 0.229141 0.0
1.30027 -0.966654 0.0
1.23827 -1.03503 0.0
1.15018 -1.88427 0.0
1.9536 -1.80044 0.0
2.09166 -1.06685 0.0
-1.28719 0.0750225 0.0
-1.31232 0.884159 0.0
-2.08713 0.909074 0.0
-2.08128 0.00906789 0.0
-1.36982 -0.0257011 0.0
-1.36033 -0.968643 0.0
-1.37409 -0.125125 0.0
-2.08555 -0.090356 0.0
-2.10097 -1.00631 0.0
2.09996 0.0556316 0.0
2.1181 0.903665 0.0
1.35301 0.923385 0.0
1.25438 0.146187 0.0
1.32328 0.0525073 0.0
0.028384 -0.971864 0.0
0.512655 -0.964041 0.0
0.563492 -0.945987 0.0
0.588707 0.0559532 0.0
0.148304 0.120491 0.0
-0.0761278 -0.0821257 0.0
-1.18872 -1.13654 0.0
-1.12821 -1.90043 0.0
-0.0797674 -1.8969 0.0
-0.140266 -1.15622 0.0
-0.716631 -1.13653 0.0
-0.500217 1.08174 0.0
-0.0178679 1.10595 0.0
0.04606 1.17396 0.0
-0.00466219 1.83302 0.0
-0.550052 1.84381 0.0
0.0859564 1.83716 0.0
0.136679 1.1781 0.0
0.682378 1.16886 0.0
1.16778 1.14727 0.0
1.19166 1.85166 0.0
1.32478 -0.0437226 0.0
1.31244 -0.872781 0.0
2.10384 -0.972977 0.0
2.10146 -0.0405983 0.0
-1.30378 0.978067 0.0
-1.24622 1.04697 0.0
-1.18396 1.8242 0.0
-1.94092 1.74983 0.0
-2.07859 1.00298 0.0
2.11382 0.995275 0.0
1.97261 1.77157 0.0
1.29257 1.84014 0.0
1.26869 1.13575 0.0
1.34873 1.015 0.0
-1.28877 -1.13073 0.0
-1.35057 -1.05982 0.0
-2.09122 -1.09749 0.0
-1.96803 -1.81808 0.0
-1.22825 -1.89462 0.0
0.629685 -0.94735 0.0
1.17241 -0.937049 0.0
1.23441 -0.868676 0.0
1.24674 -0.0396175 0.0
1.17785 0.0540617 0.0
0.707077 0.0666931 0.0
0.6549 0.0545905 0.0
-0.690856 -1.0429 0.0
-0.11449 -1.06259 0.0
-0.0371558 -0.9873 0.0
-0.141667 -0.0975612 0.0
-0.578883 -0.0562873 0.0
-0.648605 -0.0749572 0.0
-0.61945 0.977324 0.0
-1.17754 0.960298 0.0
-1.23509 0.891398 0.0
-1.20997 0.0822615 0.0
-0.702695 0.0350597 0.0
-0.632973 0.0537295 0.0
0.710537 0.173925 0.0
1.18131 0.161293 0.0
1.27994 0.938491 0.0
1.1999 1.05924 0.0
0.71449 1.08083 0.0
0.621006 -1.04899 0.0
0.57017 -1.06704 0.0
0.59844 -1.92395 0.0
1.07565 -1.88793 0.0
1.16373 -1.03869 0.0
-0.613794 1.06925 0.0
-0.561114 1.0785 0.0
-0.610949 1.84057 0.0
-1.10962 1.82946 0.0
-1.17189 1.05223 0.0
</DataArray>
</Points>
<Cells>
<DataArray type="Int32" Name="connectivity" format="ascii">
0 1 2 3 4 5 
6 7 8 9 10 
11 12 13 14 15 16 
17 18 19 20 21 22 
23 24 25 26 27 
28 29 30 31 32 
33 34 35 36 
37 38 39 40 41 
42 43 44 45 46 47 
48 49 50 51 52 
53 54 55 56 57 
58 59 60 61 62 
63 64 65 66 
67 68 69 70 71 
72 73 74 75 76 
77 78 79 80 81 
82 83 84 85 86 87 88 
89 90 91 92 93 94 
95 96 97 98 99 100 
101 102 103 104 105 
106 107 108 109 110 
111 112 113 114 115 
</DataArray>
<DataArray type="Int32" Name="offsets" format="ascii">
6 11 17 23 28 33 37 42 48 53 58 63 67 72 77 82 89 95 101 106 111 116 
</DataArray>
<DataArray type="UInt8" Name="types" format="ascii">
7 7 7 7 7 7 7 7 7 7 7 7 7 7 7 7 7 7 7 7 7 7 
</DataArray>
</Cells>
<CellData Scalars="cell variable 4" Vectors="cell vector">
<DataArray type="Float64" NumberOfComponents="3" Name="cell vector" format="ascii">
0 1 1
0 1 1
0 1 1
0 1 1
0 1 1
0 1 1
0 1 1
0 1 1
0 1 1
0 1 1
0 1 1
0 1 1
0 1 1
0 1 1
0 1 1
0 1 1
0 1 1
0 1 1
0 1 1
0 1 1
0 1 1
0 1 1
</DataArray>
<DataArray type="Float64" Name="cell vector length" format="ascii">
0.0336938 0.0320328 0.0318698 0.0290556 0.067851 0.06264 0.0599332 0.0626166 0.0337577 0.062235 0.0299455 0.0578257 0.0624139 0.0624141 0.0600748 0.0608911 0.0331929 0.0333746 0.0312398 0.0282946 0.0328843 0.031763 
</DataArray>
<DataArray type="Float64" Name="cell variable 4" format="ascii">
0 0 0 0 0 0 0 0 0 0 0 0 0 0 0 0 0 0 0 0 0 0 
</DataArray>
<DataArray type="Float64" Name="cell variable 5" format="ascii">
0 0 0 0 0 0 0 0 0 0 0 0 0 0 0 0 0 0 0 0 0 0 
</DataArray>
<DataArray type="Float64" Name="cell variable 6" format="ascii">
0 0 0 0 0 0 0 0 0 0 0 0 0 0 0 0 0 0 0 0 0 0 
</DataArray>
<DataArray type="Float64" Name="cell variable 7" format="ascii">
0 0 0 0 0 0 0 0 0 0 0 0 0 0 0 0 0 0 0 0 0 0 
</DataArray>
<DataArray type="Float64" Name="cell variable 8" format="ascii">
0 0 0 0 0 0 0 0 0 0 0 0 0 0 0 0 0 0 0 0 0 0 
</DataArray>
</CellData>
</Piece>
</UnstructuredGrid>
</VTKFile>
