<VTKFile type="UnstructuredGrid" version="0.1">
<UnstructuredGrid>
<Piece  NumberOfPoints="     406" NumberOfCells="      72">
<Points>
<DataArray type="Float64" NumberOfComponents="3" format="ascii">
-2.60234 -0.914849 0.0
-2.13453 -0.936527 0.0
-2.0453 -0.0390834 0.0
-2.45343 0.0119281 0.0
-2.61971 -0.204037 0.0
-0.128839 -2.80427 0.0
-0.0832445 -3.28789 0.0
0.925163 -3.29839 0.0
0.912593 -2.68355 0.0
-0.098457 -2.75158 0.0
-0.0211995 0.9759 0.0
-0.530052 0.933513 0.0
-0.572638 0.00417861 0.0
-0.317893 -0.0545097 0.0
0.13665 0.373208 0.0
0.602774 1.19868 0.0
0.115145 1.15805 0.0
0.0447479 1.00566 0.0
0.202598 0.402964 0.0
0.468416 0.326339 0.0
0.65318 0.318751 0.0
0.685393 1.19676 0.0
2.19633 -2.69685 0.0
2.02785 -3.2243 0.0
3.26509 -3.07231 0.0
3.43743 -2.66013 0.0
2.8526 -2.60359 0.0
2.30583 -2.54079 0.0
-2.6086 0.808185 0.0
-3.09037 0.796713 0.0
-3.13879 0.778391 0.0
-3.15661 -0.0624699 0.0
-2.67029 -0.12293 0.0
-2.50402 0.0930346 0.0
-3.22864 -0.989659 0.0
-2.70105 -0.999057 0.0
-2.66318 -0.927467 0.0
-2.68055 -0.216655 0.0
-3.16687 -0.156195 0.0
-3.22271 -0.161975 0.0
2.43681 0.0469212 0.0
2.98193 0.0692192 0.0
3.00016 0.857249 0.0
2.95124 0.874413 0.0
2.47296 0.914902 0.0
2.29555 0.254439 0.0
0.451317 -0.902281 0.0
0.392719 -0.882237 0.0
-0.106081 -0.920707 0.0
-0.208212 -1.12031 0.0
-0.059141 -1.87032 0.0
0.464141 -1.86078 0.0
-2.45134 -2.52437 0.0
-2.3662 -2.70001 0.0
-1.41663 -2.61828 0.0
-1.37969 -2.14251 0.0
-1.52484 -2.02752 0.0
-2.03718 -2.05296 0.0
-2.38751 -2.07844 0.0
0.0340373 2.15135 0.0
-0.0300744 2.59985 0.0
-0.0589466 2.63992 0.0
-1.08323 2.57501 0.0
-1.1221 2.51591 0.0
-1.07249 2.02505 0.0
-0.636797 2.01068 0.0
-0.11421 2.0142 0.0
0.0871325 2.61007 0.0
0.151244 2.16157 0.0
0.595155 2.16108 0.0
1.09261 2.16086 0.0
1.12604 2.6097 0.0
1.08944 2.71039 0.0
3.09187 -0.94606 0.0
3.03764 -0.960836 0.0
3.05281 -1.74948 0.0
3.5613 -1.79068 0.0
3.6426 -0.946177 0.0
-2.42853 1.92931 0.0
-2.49766 2.38167 0.0
-3.59139 2.49625 0.0
-3.65387 1.76774 0.0
-3.15999 1.77508 0.0
-2.54518 1.78479 0.0
3.55011 1.77332 0.0
3.49168 2.48692 0.0
2.4109 2.4142 0.0
2.29967 2.07313 0.0
2.46644 1.84292 0.0
3.07064 1.80773 0.0
-3.61534 -2.69375 0.0
-3.45293 -3.08917 0.0
-2.33323 -3.2301 0.0
-2.46829 -2.75391 0.0
-2.55343 -2.57827 0.0
1.77961 -0.900451 0.0
1.73052 -0.92019 0.0
1.79679 -1.81832 0.0
2.17789 -1.84077 0.0
2.30545 -1.69746 0.0
2.38776 -0.959585 0.0
2.3439 -0.884238 0.0
-0.272394 -1.14478 0.0
-0.783108 -1.17714 0.0
-0.763137 -2.04921 0.0
-0.292768 -2.05831 0.0
-0.123323 -1.89479 0.0
-1.88802 1.05851 0.0
-1.82933 1.04962 0.0
-1.3217 1.08049 0.0
-1.26971 1.86533 0.0
-1.85531 1.86592 0.0
1.72621 0.269089 0.0
1.79283 0.273553 0.0
1.79308 1.13144 0.0
1.74447 1.13245 0.0
1.30632 1.13947 0.0
1.28522 0.322112 0.0
1.04903 -1.9823 0.0
1.08459 -2.54368 0.0
2.08924 -2.63468 0.0
2.19875 -2.47862 0.0
2.13532 -1.93268 0.0
1.75421 -1.91023 0.0
1.14468 -1.90545 0.0
-1.19719 2.01795 0.0
-1.2468 2.5088 0.0
-2.2705 2.57358 0.0
-2.36996 2.39544 0.0
-2.30084 1.94308 0.0
-1.87563 1.94348 0.0
-1.29002 1.94289 0.0
-0.198771 -3.29356 0.0
-0.244365 -2.80994 0.0
-1.23656 -2.81133 0.0
-1.25552 -3.31732 0.0
2.22108 2.7133 0.0
2.14085 3.14512 0.0
1.20234 3.20719 0.0
1.19356 2.7616 0.0
1.23017 2.66091 0.0
-3.08782 0.89318 0.0
-2.60605 0.904652 0.0
-2.53826 1.02921 0.0
-2.52103 1.70539 0.0
-3.13584 1.69568 0.0
3.58812 1.68965 0.0
3.10866 1.72406 0.0
3.01792 0.957252 0.0
3.06684 0.940088 0.0
3.66847 0.893127 0.0
3.04661 -0.0391904 0.0
2.98751 -0.0225274 0.0
2.44239 -0.0448254 0.0
2.4122 -0.796144 0.0
2.45606 -0.87149 0.0
2.97844 -0.871448 0.0
3.03267 -0.856672 0.0
-0.109925 -0.812015 0.0
0.388875 -0.773545 0.0
0.440629 0.21928 0.0
0.17481 0.295905 0.0
-0.279733 -0.131812 0.0
2.90679 -1.82827 0.0
2.35746 -1.7783 0.0
2.22991 -1.9216 0.0
2.29334 -2.46754 0.0
2.8401 -2.53034 0.0
1.78086 -0.798472 0.0
2.34515 -0.782259 0.0
2.37534 -0.0309406 0.0
2.23408 0.176577 0.0
1.84459 0.171063 0.0
1.77797 0.166599 0.0
-2.64144 -1.84646 0.0
-2.7264 -1.08655 0.0
-3.25398 -1.07715 0.0
-3.75825 -1.06983 0.0
-3.68487 -1.85767 0.0
-0.594237 1.0472 0.0
-0.535182 1.03254 0.0
-0.0263296 1.07493 0.0
0.0440672 1.22732 0.0
-0.0912187 1.93075 0.0
-0.613806 1.92723 0.0
-0.789411 -1.07757 0.0
-0.278696 -1.04521 0.0
-0.176565 -0.845608 0.0
-0.346373 -0.165405 0.0
-0.601118 -0.106717 0.0
-0.797306 -0.10792 0.0
-0.859706 -1.05872 0.0
-1.31955 0.983486 0.0
-1.82718 0.952624 0.0
-1.87107 0.0610535 0.0
-1.43816 -0.0101764 0.0
-1.30328 0.0867016 0.0
-1.26068 0.906064 0.0
-2.42952 -1.991 0.0
-2.0792 -1.96552 0.0
-2.08257 -1.05223 0.0
-2.13381 -1.03835 0.0
-2.60162 -1.01668 0.0
-2.63949 -1.08827 0.0
-2.55453 -1.84817 0.0
-2.47787 2.44826 0.0
-2.3784 2.6264 0.0
-2.24077 3.11037 0.0
-3.39835 2.96903 0.0
-3.5716 2.56284 0.0
0.105724 1.24781 0.0
0.593353 1.28844 0.0
0.562596 2.0879 0.0
0.118685 2.08839 0.0
-0.0295622 1.95124 0.0
3.47719 2.55284 0.0
3.28958 3.00677 0.0
2.25575 3.13119 0.0
2.33598 2.69937 0.0
2.39641 2.48011 0.0
-3.67589 -1.93601 0.0
-3.6332 -2.62904 0.0
-2.57129 -2.51356 0.0
-2.50746 -2.06763 0.0
-2.63247 -1.9248 0.0
1.7776 2.01781 0.0
1.27098 2.01053 0.0
1.24534 1.31404 0.0
1.30269 1.23081 0.0
1.74084 1.22379 0.0
1.07109 -2.61332 0.0
1.0199 -2.6781 0.0
1.03247 -3.29294 0.0
1.90725 -3.23177 0.0
2.07574 -2.70432 0.0
-0.206057 -2.12741 0.0
-0.101755 -2.68186 0.0
0.909295 -2.61382 0.0
0.960485 -2.54905 0.0
0.924919 -1.98767 0.0
0.486671 -1.95435 0.0
-0.036611 -1.9639 0.0
-1.23607 2.57157 0.0
-1.1972 2.63067 0.0
-1.22079 3.18653 0.0
-2.12214 3.12032 0.0
-2.25977 2.63635 0.0
-0.0649707 2.70104 0.0
-0.0839161 3.17169 0.0
-1.11285 3.19198 0.0
-1.08926 2.63613 0.0
-2.35464 -2.76335 0.0
-2.21958 -3.23954 0.0
-1.36188 -3.31032 0.0
-1.34292 -2.80433 0.0
-1.40507 -2.68161 0.0
-0.247852 -2.74891 0.0
-0.217471 -2.69622 0.0
-0.321773 -2.14178 0.0
-0.792142 -2.13269 0.0
-1.26527 -2.15182 0.0
-1.3022 -2.62759 0.0
-1.24005 -2.7503 0.0
0.454403 -0.774356 0.0
0.513001 -0.7944 0.0
1.06116 -0.752471 0.0
1.1087 0.146392 0.0
0.69092 0.210881 0.0
0.506157 0.218469 0.0
1.06472 -0.859766 0.0
0.516564 -0.901695 0.0
0.529389 -1.86019 0.0
0.967637 -1.89351 0.0
1.06328 -1.81665 0.0
1.13235 -0.945187 0.0
1.66852 -0.819385 0.0
1.71761 -0.799646 0.0
1.71472 0.165426 0.0
1.27373 0.218449 0.0
1.17424 0.143024 0.0
1.12669 -0.755839 0.0
1.19432 -0.84126 0.0
2.28836 2.43764 0.0
2.22793 2.6569 0.0
1.23701 2.60451 0.0
1.20358 2.15566 0.0
1.29396 2.08451 0.0
1.80057 2.09179 0.0
2.17713 2.09658 0.0
-0.594907 0.932362 0.0
-0.653962 0.947023 0.0
-1.19518 0.904103 0.0
-1.23777 0.0847403 0.0
-0.833681 0.00182444 0.0
-0.637493 0.00302786 0.0
-1.401 -1.07418 0.0
-0.92161 -1.05306 0.0
-0.85921 -0.102261 0.0
-1.2633 -0.019345 0.0
-1.39819 -0.116223 0.0
-1.47386 -0.972612 0.0
-3.20276 0.780247 0.0
-3.78419 0.764938 0.0
-3.76015 -0.0370931 0.0
-3.27641 -0.0663945 0.0
-3.22057 -0.0606139 0.0
-1.89075 0.956645 0.0
-1.94944 0.965529 0.0
-2.47583 0.951832 0.0
-2.54361 0.827276 0.0
-2.43902 0.112125 0.0
-2.03089 0.0611139 0.0
-1.93464 0.065075 0.0
0.0504034 2.70384 0.0
0.0792756 2.66376 0.0
1.08158 2.76408 0.0
1.09036 3.20967 0.0
0.031458 3.17448 0.0
-0.84761 -1.17737 0.0
-0.917906 -1.15851 0.0
-1.3973 -1.17964 0.0
-1.44591 -1.95359 0.0
-1.30076 -2.06857 0.0
-0.827639 -2.04944 0.0
1.66857 -0.926639 0.0
1.19437 -0.948515 0.0
1.1253 -1.81998 0.0
1.73484 -1.82477 0.0
-1.19934 1.00301 0.0
-0.658124 1.04593 0.0
-0.677693 1.92596 0.0
-1.11339 1.94033 0.0
-1.20622 1.86527 0.0
-1.25821 1.08043 0.0
3.04905 0.0676396 0.0
3.10816 0.0509766 0.0
3.63137 0.0701553 0.0
3.66892 0.808709 0.0
3.06728 0.85567 0.0
3.63366 -0.0193158 0.0
3.11045 -0.0384945 0.0
3.0965 -0.855976 0.0
3.64723 -0.856092 0.0
-2.02114 -1.96755 0.0
-1.5088 -1.94212 0.0
-1.46018 -1.16817 0.0
-1.53304 -1.0666 0.0
-2.02452 -1.05426 0.0
-3.1995 0.869578 0.0
-3.15108 0.887901 0.0
-3.1991 1.69041 0.0
-3.69298 1.68306 0.0
-3.78093 0.85427 0.0
-2.07687 -0.941685 0.0
-2.02564 -0.955562 0.0
-1.53417 -0.9679 0.0
-1.45849 -0.111511 0.0
-1.8914 -0.0402807 0.0
-1.98765 -0.0442418 0.0
2.97493 -0.961749 0.0
2.45254 -0.961792 0.0
2.37023 -1.69967 0.0
2.91956 -1.74964 0.0
2.99009 -1.75039 0.0
1.19289 1.22593 0.0
0.74408 1.19242 0.0
0.711866 0.31441 0.0
1.12965 0.249921 0.0
1.22914 0.325346 0.0
1.25024 1.1427 0.0
3.04567 1.73274 0.0
2.44147 1.76793 0.0
2.40764 1.18876 0.0
2.47666 1.00642 0.0
2.95493 0.96593 0.0
-2.47537 1.04328 0.0
-1.94898 1.05698 0.0
-1.91628 1.86439 0.0
-2.34149 1.86399 0.0
-2.45814 1.71947 0.0
0.654402 1.29003 0.0
0.737021 1.28811 0.0
1.18583 1.32162 0.0
1.21147 2.01811 0.0
1.1211 2.08926 0.0
0.623644 2.08948 0.0
-3.79085 -0.979958 0.0
-3.28658 -0.987283 0.0
-3.28066 -0.159599 0.0
-3.7644 -0.130298 0.0
3.04324 -1.83584 0.0
2.97271 -1.83509 0.0
2.90603 -2.53716 0.0
3.49086 -2.5937 0.0
3.55173 -1.87704 0.0
1.84763 0.275091 0.0
2.23712 0.280605 0.0
2.41453 0.941068 0.0
2.34552 1.12341 0.0
1.84787 1.13298 0.0
2.21128 2.02045 0.0
1.83472 2.01567 0.0
1.79797 1.22165 0.0
1.84658 1.22064 0.0
2.34422 1.21107 0.0
2.37805 1.79024 0.0
</DataArray>
</Points>
<Cells>
<DataArray type="Int32" Name="connectivity" format="ascii">
0 1 2 3 4 
5 6 7 8 9 
10 11 12 13 14 
15 16 17 18 19 20 21 
22 23 24 25 26 27 
28 29 30 31 32 33 
34 35 36 37 38 39 
40 41 42 43 44 45 
46 47 48 49 50 51 
52 53 54 55 56 57 58 
59 60 61 62 63 64 65 66 
67 68 69 70 71 72 
73 74 75 76 77 
78 79 80 81 82 83 
84 85 86 87 88 89 
90 91 92 93 94 
95 96 97 98 99 100 101 
102 103 104 105 106 
107 108 109 110 111 
112 113 114 115 116 117 
118 119 120 121 122 123 124 
125 126 127 128 129 130 131 
132 133 134 135 
136 137 138 139 140 
141 142 143 144 145 
146 147 148 149 150 
151 152 153 154 155 156 157 
158 159 160 161 162 
163 164 165 166 167 
168 169 170 171 172 173 
174 175 176 177 178 
179 180 181 182 183 184 
185 186 187 188 189 190 191 
192 193 194 195 196 197 
198 199 200 201 202 203 204 
205 206 207 208 209 
210 211 212 213 214 
215 216 217 218 219 
220 221 222 223 224 
225 226 227 228 229 
230 231 232 233 234 
235 236 237 238 239 240 241 
242 243 244 245 246 
247 248 249 250 
251 252 253 254 255 
256 257 258 259 260 261 262 
263 264 265 266 267 268 
269 270 271 272 273 274 
275 276 277 278 279 280 281 
282 283 284 285 286 287 288 
289 290 291 292 293 294 
295 296 297 298 299 300 
301 302 303 304 305 
306 307 308 309 310 311 312 
313 314 315 316 317 
318 319 320 321 322 323 
324 325 326 327 
328 329 330 331 332 333 
334 335 336 337 338 
339 340 341 342 
343 344 345 346 347 
348 349 350 351 352 
353 354 355 356 357 358 
359 360 361 362 363 
364 365 366 367 368 369 
370 371 372 373 374 
375 376 377 378 379 
380 381 382 383 384 385 
386 387 388 389 
390 391 392 393 394 
395 396 397 398 399 
400 401 402 403 404 405 
</DataArray>
<DataArray type="Int32" Name="offsets" format="ascii">
5 10 15 22 28 34 40 46 52 59 67 73 78 84 90 95 102 107 112 118 125 132 136 141 146 151 158 163 168 174 179 185 192 198 205 210 215 220 225 230 235 242 247 251 256 263 269 275 282 289 295 301 306 313 318 324 328 334 339 343 348 353 359 364 370 375 380 386 390 395 400 406 
</DataArray>
<DataArray type="UInt8" Name="types" format="ascii">
7 7 7 7 7 7 7 7 7 7 7 7 7 7 7 7 7 7 7 7 7 7 7 7 7 7 7 7 7 7 7 7 7 7 7 7 7 7 7 7 7 7 7 7 7 7 7 7 7 7 7 7 7 7 7 7 7 7 7 7 7 7 7 7 7 7 7 7 7 7 7 7 
</DataArray>
</Cells>
<CellData Scalars="cell variable 4" Vectors="cell vector">
<DataArray type="Float64" NumberOfComponents="3" Name="cell vector" format="ascii">
0 1 1
0 1 1
0 1 1
0 1 1
0 1 1
0 1 1
0 1 1
0 1 1
0 1 1
0 1 1
0 1 1
0 1 1
0 1 1
0 1 1
0 1 1
0 1 1
0 1 1
0 1 1
0 1 1
0 1 1
0 1 1
0 1 1
0 1 1
0 1 1
0 1 1
0 1 1
0 1 1
0 1 1
0 1 1
0 1 1
0 1 1
0 1 1
0 1 1
0 1 1
0 1 1
0 1 1
0 1 1
0 1 1
0 1 1
0 1 1
0 1 1
0 1 1
0 1 1
0 1 1
0 1 1
0 1 1
0 1 1
0 1 1
0 1 1
0 1 1
0 1 1
0 1 1
0 1 1
0 1 1
0 1 1
0 1 1
0 1 1
0 1 1
0 1 1
0 1 1
0 1 1
0 1 1
0 1 1
0 1 1
0 1 1
0 1 1
0 1 1
0 1 1
0 1 1
0 1 1
0 1 1
0 1 1
</DataArray>
<DataArray type="Float64" Name="cell vector length" format="ascii">
0.00824589 0.0158734 0.00821095 0.00694633 0.0335486 0.0158831 0.0151879 0.0159986 0.0082692 0.0159227 0.0151643 0.0135067 0.0163892 0.0315349 0.030528 0.0301485 0.00853959 0.00855353 0.00773095 0.0070318 0.0168507 0.0162469 0.0151805 0.0145673 0.015113 0.0159922 0.0158835 0.00869649 0.0170785 0.00838279 0.0300517 0.00781304 0.00798901 0.00829173 0.00859542 0.0308792 0.00746391 0.0295468 0.0307427 0.00686928 0.0160336 0.0161594 0.0155161 0.0147812 0.015296 0.0158358 0.00850399 0.00828801 0.00854453 0.0149029 0.00802476 0.00831762 0.0155169 0.00802229 0.0148488 0.00851447 0.00772596 0.00782106 0.0156098 0.0152938 0.00846531 0.0161269 0.00838723 0.0148475 0.00729125 0.0150159 0.00719487 0.00735411 0.0146936 0.0172239 0.00700631 0.00738724 
</DataArray>
<DataArray type="Float64" Name="cell variable 4" format="ascii">
0 0 0 0 0 0 0 0 0 0 0 0 0 0 0 0 0 0 0 0 0 0 0 0 0 0 0 0 0 0 0 0 0 0 0 0 0 0 0 0 0 0 0 0 0 0 0 0 0 0 0 0 0 0 0 0 0 0 0 0 0 0 0 0 0 0 0 0 0 0 0 0 
</DataArray>
<DataArray type="Float64" Name="cell variable 5" format="ascii">
0 0 0 0 0 0 0 0 0 0 0 0 0 0 0 0 0 0 0 0 0 0 0 0 0 0 0 0 0 0 0 0 0 0 0 0 0 0 0 0 0 0 0 0 0 0 0 0 0 0 0 0 0 0 0 0 0 0 0 0 0 0 0 0 0 0 0 0 0 0 0 0 
</DataArray>
<DataArray type="Float64" Name="cell variable 6" format="ascii">
0 0 0 0 0 0 0 0 0 0 0 0 0 0 0 0 0 0 0 0 0 0 0 0 0 0 0 0 0 0 0 0 0 0 0 0 0 0 0 0 0 0 0 0 0 0 0 0 0 0 0 0 0 0 0 0 0 0 0 0 0 0 0 0 0 0 0 0 0 0 0 0 
</DataArray>
<DataArray type="Float64" Name="cell variable 7" format="ascii">
0 0 0 0 0 0 0 0 0 0 0 0 0 0 0 0 0 0 0 0 0 0 0 0 0 0 0 0 0 0 0 0 0 0 0 0 0 0 0 0 0 0 0 0 0 0 0 0 0 0 0 0 0 0 0 0 0 0 0 0 0 0 0 0 0 0 0 0 0 0 0 0 
</DataArray>
<DataArray type="Float64" Name="cell variable 8" format="ascii">
0 0 0 0 0 0 0 0 0 0 0 0 0 0 0 0 0 0 0 0 0 0 0 0 0 0 0 0 0 0 0 0 0 0 0 0 0 0 0 0 0 0 0 0 0 0 0 0 0 0 0 0 0 0 0 0 0 0 0 0 0 0 0 0 0 0 0 0 0 0 0 0 
</DataArray>
</CellData>
</Piece>
</UnstructuredGrid>
</VTKFile>
