<VTKFile type="UnstructuredGrid" version="0.1">
<UnstructuredGrid>
<Piece  NumberOfPoints="      56" NumberOfCells="      11">
<Points>
<DataArray type="Float64" NumberOfComponents="3" format="ascii">
-0.758639 -0.00656095 0.0
-0.728039 -0.596267 0.0
-0.0352259 -0.604964 0.0
-0.0340025 -0.541215 0.0
-0.0702186 0.0155596 0.0
-0.700406 0.039181 0.0
0.0440455 -0.668035 0.0
0.0662207 -1.22892 0.0
0.706209 -1.25745 0.0
0.754141 -0.60467 0.0
0.0452689 -0.604287 0.0
0.0696026 0.180976 0.0
0.0409427 0.676571 0.0
-0.680134 0.664313 0.0
-0.692138 0.106193 0.0
-0.0619506 0.0825718 0.0
0.802476 1.32134 0.0
0.0851846 1.27861 0.0
0.117083 0.715119 0.0
0.145743 0.219524 0.0
0.735587 0.181234 0.0
0.777422 -1.22526 0.0
1.36048 -1.16707 0.0
1.44038 -0.0018409 0.0
0.849459 0.000824112 0.0
0.825354 -0.572485 0.0
-0.822377 0.090051 0.0
-0.764144 0.135793 0.0
-0.75214 0.693912 0.0
-0.730966 1.30145 0.0
-1.28267 1.25346 0.0
-1.36429 0.100197 0.0
-0.824919 -0.0396617 0.0
-1.36683 -0.0295156 0.0
-1.29758 -1.17942 0.0
-0.754647 -1.22652 0.0
-0.794319 -0.629367 0.0
1.36637 1.26777 0.0
0.869656 1.31309 0.0
0.802766 0.172978 0.0
0.850562 0.129014 0.0
1.44148 0.126349 0.0
0.00909864 0.0228273 0.0
0.0453147 -0.533948 0.0
0.754187 -0.534331 0.0
0.778291 0.0389775 0.0
0.730496 0.0829418 0.0
0.140652 0.121232 0.0
-0.724923 -0.6631 0.0
-0.685251 -1.26025 0.0
-0.00993402 -1.23268 0.0
-0.0321092 -0.671797 0.0
0.0396672 0.740678 0.0
0.00776877 1.30417 0.0
-0.660235 1.33596 0.0
-0.681409 0.72842 0.0
</DataArray>
</Points>
<Cells>
<DataArray type="Int32" Name="connectivity" format="ascii">
0 1 2 3 4 5 
6 7 8 9 10 
11 12 13 14 15 
16 17 18 19 20 
21 22 23 24 25 
26 27 28 29 30 31 
32 33 34 35 36 
37 38 39 40 41 
42 43 44 45 46 47 
48 49 50 51 
52 53 54 55 
</DataArray>
<DataArray type="Int32" Name="offsets" format="ascii">
6 11 16 21 26 32 37 42 48 52 56 
</DataArray>
<DataArray type="UInt8" Name="types" format="ascii">
7 7 7 7 7 7 7 7 7 7 7 
</DataArray>
</Cells>
<CellData Scalars="cell variable 4" Vectors="cell vector">
<DataArray type="Float64" NumberOfComponents="3" Name="cell vector" format="ascii">
0 1 1
0 1 1
0 1 1
0 1 1
0 1 1
0 1 1
0 1 1
0 1 1
0 1 1
0 1 1
0 1 1
</DataArray>
<DataArray type="Float64" Name="cell vector length" format="ascii">
0.0670685 0.0649171 0.0631096 0.115176 0.130265 0.125054 0.120824 0.122691 0.0669506 0.062235 0.0617085 
</DataArray>
<DataArray type="Float64" Name="cell variable 4" format="ascii">
0 0 0 0 0 0 0 0 0 0 0 
</DataArray>
<DataArray type="Float64" Name="cell variable 5" format="ascii">
0 0 0 0 0 0 0 0 0 0 0 
</DataArray>
<DataArray type="Float64" Name="cell variable 6" format="ascii">
0 0 0 0 0 0 0 0 0 0 0 
</DataArray>
<DataArray type="Float64" Name="cell variable 7" format="ascii">
0 0 0 0 0 0 0 0 0 0 0 
</DataArray>
<DataArray type="Float64" Name="cell variable 8" format="ascii">
0 0 0 0 0 0 0 0 0 0 0 
</DataArray>
</CellData>
</Piece>
</UnstructuredGrid>
</VTKFile>
