<VTKFile type="UnstructuredGrid" version="0.1">
<UnstructuredGrid>
<Piece  NumberOfPoints="      38" NumberOfCells="       8">
<Points>
<DataArray type="Float64" NumberOfComponents="3" format="ascii">
-0.529853 -0.0434368 0.0
-0.579925 -0.0634452 0.0
-0.534229 -1.02374 0.0
-0.0274952 -0.990477 0.0
-0.0702501 -0.0520063 0.0
0.0296875 -0.98704 0.0
0.505807 -1.03186 0.0
0.543468 -0.0388442 0.0
0.499936 -0.0217587 0.0
0.0731338 0.0230848 0.0
-0.0130675 -0.0485695 0.0
-0.525841 0.0609637 0.0
-0.0662386 0.0523943 0.0
0.0199626 0.124049 0.0
-0.0232399 0.966325 0.0
-0.521106 1.00711 0.0
0.574814 0.99865 0.0
0.0333015 0.970929 0.0
0.076504 0.128653 0.0
0.503306 0.0838098 0.0
0.561274 -1.03469 0.0
1.03705 -0.980964 0.0
1.09835 -0.0452642 0.0
0.598936 -0.0416756 0.0
-0.631162 0.0396478 0.0
-0.58109 0.0596562 0.0
-0.576355 1.0058 0.0
-1.02715 0.965356 0.0
-1.08906 0.0393492 0.0
-0.632951 -0.0640477 0.0
-1.09084 -0.0643463 0.0
-1.03458 -0.989573 0.0
-0.587254 -1.02434 0.0
1.03606 0.973116 0.0
0.627614 0.992307 0.0
0.556107 0.0774664 0.0
0.599639 0.0603809 0.0
1.09906 0.0567922 0.0
</DataArray>
</Points>
<Cells>
<DataArray type="Int32" Name="connectivity" format="ascii">
0 1 2 3 4 
5 6 7 8 9 10 
11 12 13 14 15 
16 17 18 19 
20 21 22 23 
24 25 26 27 28 
29 30 31 32 
33 34 35 36 37 
</DataArray>
<DataArray type="Int32" Name="offsets" format="ascii">
5 11 16 20 24 29 33 38 
</DataArray>
<DataArray type="UInt8" Name="types" format="ascii">
7 7 7 7 7 7 7 7 
</DataArray>
</Cells>
<CellData Scalars="cell variable 4" Vectors="cell vector">
<DataArray type="Float64" NumberOfComponents="3" Name="cell vector" format="ascii">
0 1 1
0 1 1
0 1 1
0 1 1
0 1 1
0 1 1
0 1 1
0 1 1
</DataArray>
<DataArray type="Float64" Name="cell vector length" format="ascii">
0.129303 0.131868 0.124818 0.115176 0.130265 0.125054 0.120824 0.122691 
</DataArray>
<DataArray type="Float64" Name="cell variable 4" format="ascii">
0 0 0 0 0 0 0 0 
</DataArray>
<DataArray type="Float64" Name="cell variable 5" format="ascii">
0 0 0 0 0 0 0 0 
</DataArray>
<DataArray type="Float64" Name="cell variable 6" format="ascii">
0 0 0 0 0 0 0 0 
</DataArray>
<DataArray type="Float64" Name="cell variable 7" format="ascii">
0 0 0 0 0 0 0 0 
</DataArray>
<DataArray type="Float64" Name="cell variable 8" format="ascii">
0 0 0 0 0 0 0 0 
</DataArray>
</CellData>
</Piece>
</UnstructuredGrid>
</VTKFile>
