<VTKFile type="UnstructuredGrid" version="0.1">
<UnstructuredGrid>
<Piece  NumberOfPoints="      88" NumberOfCells="      62">
<Points>
<DataArray type="Float64" NumberOfComponents="3" format="ascii">
-1.45057 -1.37809 0 
1.44856 -1.36537 0 
-1.43406 1.33418 0 
1.45595 1.35139 0 
-0.00448326 -1.4157 0 
0.0137431 1.36615 0 
-0.0701056 -0.0173028 0 
-1.53063 -0.0244467 0 
0.0862563 0.113236 0 
1.54336 0.00737923 0 
0.764926 -1.43766 0 
0.856034 0.00566434 0 
-0.833233 0.0215473 0 
-0.787781 1.39561 0 
-0.899929 -0.0403834 0 
-0.815146 -1.43909 0 
0.873682 1.40065 0 
0.799859 0.0614856 0 
-0.0154505 -0.691445 0 
0.816605 -0.677777 0 
-0.866831 -0.750883 0 
-0.0392318 -0.764385 0 
0.0309563 0.712948 0 
-0.820124 0.694953 0 
0.0345245 0.780053 0 
0.843114 0.757278 0 
-0.856358 -0.0743068 0.0
-0.82657 -0.713757 0.0
-0.0817303 -0.725908 0.0
-0.0603272 -0.660262 0.0
-0.109517 -0.0535343 0.0
-0.796332 -0.0185692 0.0
0.00344995 -0.792896 0.0
0.0347236 -1.37908 0.0
0.727192 -1.39884 0.0
0.773703 -0.714949 0.0
0.0248531 -0.72725 0.0
0.039461 0.137082 0.0
-0.010309 0.676822 0.0
-0.776282 0.660627 0.0
-0.78808 0.0545615 0.0
-0.101265 0.0195963 0.0
0.0752538 0.7456 0.0
0.0720425 0.685205 0.0
0.121812 0.145465 0.0
0.764055 0.0988895 0.0
0.802984 0.725102 0.0
0.803571 -1.36351 0.0
1.41884 -1.29845 0.0
1.50416 -0.0629784 0.0
0.885569 -0.0645218 0.0
0.850082 -0.679619 0.0
-0.924644 0.0294428 0.0
-0.864618 0.0851804 0.0
-0.85282 0.691246 0.0
-0.823711 1.32184 0.0
-1.40536 1.26655 0.0
-1.49228 0.0437858 0.0
-0.927421 -0.108424 0.0
-1.49505 -0.0940814 0.0
-1.423 -1.31236 0.0
-0.851117 -1.36726 0.0
-0.897633 -0.747874 0.0
1.42707 1.28265 0.0
0.90302 1.32698 0.0
0.875509 0.747944 0.0
0.83658 0.121732 0.0
0.887138 0.0714925 0.0
1.50573 0.0730359 0.0
-0.0237727 -0.0451466 0.0
0.0254168 -0.651875 0.0
0.774266 -0.639573 0.0
0.809753 -0.0244762 0.0
0.759195 0.025763 0.0
0.116953 0.0723386 0.0
-0.823674 -0.784949 0.0
-0.777157 -1.40433 0.0
-0.0475605 -1.38328 0.0
-0.0788342 -0.797101 0.0
-0.0115782 0.745536 0.0
-0.00836687 0.805931 0.0
-0.0270701 1.33342 0.0
-0.748442 1.35993 0.0
-0.777551 0.729342 0.0
0.0571415 1.33746 0.0
0.0758448 0.809968 0.0
0.803575 0.78947 0.0
0.831086 1.36851 0.0
</DataArray>
</Points>
<Cells>
<DataArray type="Int32" Name="connectivity" format="ascii">
14 20 27 26 20 21 28 27 21 18 29 28 18 6 30 29 6 12 31 30 12 14 26 31 21 4 33 32 4 10 34 33 10 19 35 34 19 18 36 35 18 21 32 36 8 22 38 37 22 23 39 38 23 12 40 39 12 6 41 40 6 8 37 41 24 22 43 42 22 8 44 43 8 17 45 44 17 25 46 45 25 24 42 46 10 1 48 47 1 9 49 48 9 11 50 49 11 19 51 50 19 10 47 51 14 12 53 52 12 23 54 53 23 13 55 54 13 2 56 55 2 7 57 56 7 14 52 57 14 7 59 58 7 0 60 59 0 15 61 60 15 20 62 61 20 14 58 62 3 16 64 63 16 25 65 64 25 17 66 65 17 11 67 66 11 9 68 67 9 3 63 68 6 18 70 69 18 19 71 70 19 11 72 71 11 17 73 72 17 8 74 73 8 6 69 74 20 15 76 75 15 4 77 76 4 21 78 77 21 20 75 78 22 24 80 79 24 5 81 80 5 13 82 81 13 23 83 82 23 22 79 83 5 24 85 84 24 25 86 85 25 16 87 86 16 5 84 87 
</DataArray>
<DataArray type="Int32" Name="offsets" format="ascii">
4 8 12 16 20 24 28 32 36 40 44 48 52 56 60 64 68 72 76 80 84 88 92 96 100 104 108 112 116 120 124 128 132 136 140 144 148 152 156 160 164 168 172 176 180 184 188 192 196 200 204 208 212 216 220 224 228 232 236 240 244 248 
</DataArray>
<DataArray type="UInt8" Name="types" format="ascii">
7 7 7 7 7 7 7 7 7 7 7 7 7 7 7 7 7 7 7 7 7 7 7 7 7 7 7 7 7 7 7 7 7 7 7 7 7 7 7 7 7 7 7 7 7 7 7 7 7 7 7 7 7 7 7 7 7 7 7 7 7 7 
</DataArray>
</Cells>
<CellData Scalars="wall variable 0">
<DataArray type="Float64" Name="wall length" format="ascii">
0.60981 0.770853 0.0650561 0.564203 0.626166 0.0738025 0.576956 0.639225 0.680669 0.768945 0.0650561 0.505629 0.801148 0.576436 0.626166 0.159943 0.0576907 0.505629 0.586185 0.607772 0.791974 0.602282 1.1931 0.614566 0.585305 0.680669 0.0738025 0.576436 0.628641 0.569531 1.18149 0.564108 0.564108 1.17799 0.561538 0.618852 0.60981 0.513389 0.574687 0.607772 0.0643202 0.614566 1.16936 0.564203 0.768945 0.585305 0.0643202 0.586185 0.159943 0.618852 0.675763 0.576956 0.770853 0.0576907 0.51828 0.667968 0.628641 0.801148 0.51828 0.791974 0.574687 0.720298 
</DataArray>
<DataArray type="Float64" Name="wall variable 0" format="ascii">
0 0 0 0 0 0 0 0 0 0 0 0 0 0 0 0 0 0 0 0 0 0 0 0 0 0 0 0 0 0 0 0 0 0 0 0 0 0 0 0 0 0 0 0 0 0 0 0 0 0 0 0 0 0 0 0 0 0 0 0 0 0 
</DataArray>
<DataArray type="Float64" Name="wall variable 1" format="ascii">
0 0 0 0 0 0 0 0 0 0 0 0 0 0 0 0 0 0 0 0 0 0 0 0 0 0 0 0 0 0 0 0 0 0 0 0 0 0 0 0 0 0 0 0 0 0 0 0 0 0 0 0 0 0 0 0 0 0 0 0 0 0 
</DataArray>
</CellData>
</Piece>
</UnstructuredGrid>
</VTKFile>
