<VTKFile type="UnstructuredGrid" version="0.1">
<UnstructuredGrid>
<Piece  NumberOfPoints="     304" NumberOfCells="     220">
<Points>
<DataArray type="Float64" NumberOfComponents="3" format="ascii">
-2.68935 -2.38365 0 
2.62021 -2.37476 0 
-2.65192 2.38261 0 
2.62931 2.4127 0 
-0.0679257 -2.52848 0 
0.00889777 2.52893 0 
-0.205562 -0.0330422 0 
-2.88967 -0.0134389 0 
0.166422 0.306794 0 
2.85972 0.0617308 0 
1.49797 -2.50371 0 
1.80192 0.04817 0 
-1.7942 0.0927576 0 
-1.60078 2.5029 0 
-1.9249 -0.0780721 0 
-1.66871 -2.50652 0 
1.6866 2.52031 0 
1.6914 0.210328 0 
-0.0292323 -1.39726 0 
1.65322 -1.35499 0 
-1.77773 -1.47344 0 
-0.168171 -1.51399 0 
-0.0205594 1.52773 0 
-1.7167 1.45401 0 
0.0986933 1.62839 0 
1.67822 1.57752 0 
1.75597 -1.24366 0 
2.82135 -1.35305 0 
-1.81448 1.34479 0 
-2.85586 1.34997 0 
2.84311 1.34469 0 
1.82273 1.3983 0 
-1.88382 -1.36516 0 
-2.87085 -1.38975 0 
0.823701 -1.35056 0 
0.872803 0.186069 0 
-1.06191 -1.45403 0 
-1.00867 0.000835712 0 
-0.869513 1.47333 0 
-0.904338 0.0690925 0 
0.950117 0.237535 0 
0.94676 1.58894 0 
0.746525 -1.39951 0 
0.765437 -2.5583 0 
-0.793509 1.52128 0 
-0.844746 2.56619 0 
-0.946898 -2.57664 0 
-0.939863 -1.52764 0 
0.891452 2.58379 0 
0.870915 1.63478 0 
-1.88268 0.676297 0 
-2.94082 0.650772 0 
2.91659 0.672572 0 
1.8326 0.754071 0 
2.90044 -0.635877 0 
1.83052 -0.631785 0 
-0.0928652 -0.596637 0 
0.838813 -0.550464 0 
1.68585 -1.82386 0 
2.77815 -1.98531 0 
1.80847 -0.566967 0 
0.874129 -0.626433 0 
-1.95357 -0.726386 0 
-2.94054 -0.722026 0 
0.0595422 0.802383 0 
-0.878279 0.742707 0 
-0.125791 -0.768474 0 
-1.02817 -0.80445 0 
-0.904838 0.813658 0 
-1.85419 0.783331 0 
-1.93547 -0.664057 0 
-1.06021 -0.712834 0 
-1.73362 1.84487 0 
-2.79679 1.99302 0 
0.0696908 0.933722 0 
0.941332 0.997793 0 
2.77514 1.97376 0 
1.72023 1.88245 0 
-2.8108 -1.99995 0 
-1.77424 -1.85925 0 
0.957348 0.919644 0 
1.82301 0.910577 0 
0.75514 -1.86918 0 
1.6423 -1.98252 0 
-1.88038 -0.102292 0.0
-1.8899 -0.629678 0.0
-1.10216 -0.673578 0.0
-1.05578 -0.0312751 0.0
-1.76275 0.0514546 0.0
0.704021 -1.45608 0.0
0.00583982 -1.45405 0.0
-0.119205 -1.55911 0.0
-0.0289842 -2.47215 0.0
0.721042 -2.49899 0.0
0.711775 -1.87878 0.0
0.110489 0.316407 0.0
0.014297 0.762437 0.0
-0.829742 0.708728 0.0
-0.853196 0.102475 0.0
-0.224297 0.0105541 0.0
0.117315 0.901673 0.0
0.108181 0.783468 0.0
0.204373 0.337438 0.0
0.840116 0.228785 0.0
0.909698 0.275105 0.0
0.916206 0.889003 0.0
0.901792 0.959337 0.0
1.68772 -2.00113 0.0
1.55782 -2.4702 0.0
2.56784 -2.35414 0.0
2.70998 -2.00364 0.0
1.72692 -1.85834 0.0
-1.85146 0.114397 0.0
-1.93109 0.639582 0.0
-2.88342 0.61661 0.0
-2.83738 0.0188198 0.0
-1.96909 -0.0393501 0.0
-1.98501 -0.636308 0.0
-1.97549 -0.108922 0.0
-2.84379 -0.0507523 0.0
-2.88957 -0.68848 0.0
-2.0013 -0.692404 0.0
2.80462 0.0939078 0.0
2.8558 0.643665 0.0
1.88022 0.717014 0.0
1.75314 0.227645 0.0
1.85261 0.0817031 0.0
-0.0746927 -0.78909 0.0
0.0122099 -1.35499 0.0
0.710391 -1.35702 0.0
0.77985 -1.31297 0.0
0.825235 -0.661253 0.0
0.79345 -0.592881 0.0
-0.0450597 -0.634437 0.0
-1.63576 -2.45486 0.0
-0.986127 -2.51797 0.0
-0.979797 -1.57387 0.0
-1.08964 -1.50762 0.0
-1.73387 -1.52509 0.0
-1.73073 -1.87232 0.0
-0.752788 1.57263 0.0
-0.0571334 1.57843 0.0
0.050194 1.66903 0.0
-0.0306219 2.47951 0.0
-0.798901 2.51304 0.0
0.849347 2.53587 0.0
0.0550484 2.48649 0.0
0.135864 1.67601 0.0
0.830864 1.68176 0.0
2.77332 -1.31446 0.0
2.8445 -0.669012 0.0
1.88158 -0.665329 0.0
1.81448 -1.21601 0.0
-1.77537 1.47197 0.0
-1.7906 1.82375 0.0
-2.74745 1.95709 0.0
-2.80061 1.37834 0.0
-1.86337 1.37368 0.0
2.78758 1.37535 0.0
2.72641 1.94151 0.0
1.777 1.85933 0.0
1.73919 1.5849 0.0
1.86924 1.4236 0.0
-2.749 -2.01835 0.0
-2.63969 -2.36367 0.0
-1.72111 -2.47425 0.0
-1.81609 -1.89171 0.0
1.77979 -0.665567 0.0
1.75994 -0.607231 0.0
0.919041 -0.660751 0.0
0.873655 -1.31247 0.0
1.62022 -1.31645 0.0
1.7127 -1.21625 0.0
-0.082108 -1.37319 0.0
-0.169011 -0.807287 0.0
-0.981149 -0.839666 0.0
-1.01152 -1.42429 0.0
-0.901676 -1.49054 0.0
-0.207153 -1.47825 0.0
-0.950021 0.845056 0.0
-0.918228 1.43876 0.0
-1.6807 1.42137 0.0
-1.7687 1.32307 0.0
-1.80444 0.817762 0.0
0.998466 0.885616 0.0
0.991958 0.271718 0.0
1.65911 0.247231 0.0
1.78619 0.7366 0.0
1.77756 0.877455 0.0
0.794463 -1.42377 0.0
0.802216 -1.84647 0.0
1.60066 -1.94847 0.0
1.63986 -1.80568 0.0
1.61049 -1.38369 0.0
0.863922 -1.37971 0.0
-0.907723 1.52409 0.0
-0.839319 1.56725 0.0
-0.885432 2.50766 0.0
-1.56586 2.4507 0.0
-1.68542 1.85848 0.0
-1.67019 1.5067 0.0
-0.905431 -2.52379 0.0
-0.114356 -2.48044 0.0
-0.204577 -1.5674 0.0
-0.8991 -1.57969 0.0
1.6468 2.47489 0.0
0.931162 2.53203 0.0
0.912679 1.67792 0.0
0.980939 1.63666 0.0
1.63926 1.62639 0.0
1.67707 1.90082 0.0
-1.93173 0.70908 0.0
-1.90609 0.805411 0.0
-1.87035 1.31072 0.0
-2.80759 1.31539 0.0
-2.88406 0.686108 0.0
2.86046 0.709206 0.0
2.79433 1.31411 0.0
1.87599 1.36236 0.0
1.87624 0.92341 0.0
1.88488 0.782554 0.0
2.84496 -0.601376 0.0
2.80832 0.026471 0.0
1.8563 0.0142663 0.0
1.86219 -0.539357 0.0
1.88204 -0.597693 0.0
-0.149445 -0.0465392 0.0
-0.0480183 -0.553775 0.0
0.790492 -0.512219 0.0
0.821083 0.150661 0.0
0.18534 0.259313 0.0
1.71249 -1.37938 0.0
1.74186 -1.80137 0.0
2.72492 -1.94668 0.0
2.7638 -1.37764 0.0
1.80497 -1.27918 0.0
1.75938 -0.529766 0.0
1.7535 0.0238573 0.0
1.65403 0.169799 0.0
0.986869 0.194286 0.0
0.917287 0.147966 0.0
0.886695 -0.514913 0.0
0.91848 -0.583286 0.0
-1.93702 -1.33374 0.0
-1.9998 -0.758851 0.0
-2.88807 -0.754927 0.0
-2.82535 -1.35588 0.0
0.0104814 0.835965 0.0
0.0196151 0.95417 0.0
-0.0616101 1.48877 0.0
-0.757265 1.48297 0.0
-0.825668 1.43982 0.0
-0.857461 0.846112 0.0
-0.833557 0.782256 0.0
-0.173096 -0.731149 0.0
-0.143463 -0.576496 0.0
-0.244891 -0.0692609 0.0
-0.873789 0.0226604 0.0
-0.967692 -0.0387708 0.0
-1.01407 -0.681074 0.0
-0.985235 -0.763528 0.0
-0.926034 0.711358 0.0
-0.949938 0.775214 0.0
-1.80436 0.74792 0.0
-1.82999 0.651589 0.0
-1.75036 0.126404 0.0
-1.04339 0.043674 0.0
-0.949488 0.105105 0.0
-1.89035 -0.704239 0.0
-1.90664 -0.760335 0.0
-1.84386 -1.33523 0.0
-1.74838 -1.43268 0.0
-1.10414 -1.41522 0.0
-1.07377 -0.830594 0.0
-1.10261 -0.748139 0.0
-1.77543 1.87807 0.0
-1.65587 2.47029 0.0
-2.6019 2.36203 0.0
-2.73228 2.0114 0.0
0.0291876 1.50501 0.0
0.110413 0.970407 0.0
0.89489 1.02807 0.0
0.899775 1.5601 0.0
0.831515 1.60136 0.0
0.136515 1.59561 0.0
2.71492 1.99548 0.0
2.58368 2.39053 0.0
1.73524 2.48738 0.0
1.76551 1.9133 0.0
-2.81703 -1.41625 0.0
-2.76299 -1.96543 0.0
-1.83008 -1.8388 0.0
-1.83322 -1.49157 0.0
-1.92871 -1.39412 0.0
0.98465 1.02227 0.0
0.999064 0.95194 0.0
1.77816 0.943779 0.0
1.7779 1.38273 0.0
1.64785 1.54403 0.0
0.989536 1.55431 0.0
0.794463 -1.90396 0.0
0.80373 -2.52417 0.0
1.46301 -2.47504 0.0
1.59291 -2.00597 0.0
</DataArray>
</Points>
<Cells>
<DataArray type="Int32" Name="connectivity" format="ascii">
14 70 85 84 70 71 86 85 71 37 87 86 37 12 88 87 12 14 84 88 42 18 90 89 18 21 91 90 21 4 92 91 4 43 93 92 43 82 94 93 82 42 89 94 8 64 96 95 64 65 97 96 65 39 98 97 39 6 99 98 6 8 95 99 74 64 101 100 64 8 102 101 8 35 103 102 35 40 104 103 40 80 105 104 80 75 106 105 75 74 100 106 83 10 108 107 10 1 109 108 1 59 110 109 59 58 111 110 58 83 107 111 12 50 113 112 50 51 114 113 51 7 115 114 7 14 116 115 14 12 112 116 70 14 118 117 14 7 119 118 7 63 120 119 63 62 121 120 62 70 117 121 9 52 123 122 52 53 124 123 53 17 125 124 17 11 126 125 11 9 122 126 66 18 128 127 18 42 129 128 42 34 130 129 34 61 131 130 61 57 132 131 57 56 133 132 56 66 127 133 15 46 135 134 46 47 136 135 47 36 137 136 36 20 138 137 20 79 139 138 79 15 134 139 44 22 141 140 22 24 142 141 24 5 143 142 5 45 144 143 45 44 140 144 48 5 146 145 5 24 147 146 24 49 148 147 49 48 145 148 27 54 150 149 54 55 151 150 55 26 152 151 26 27 149 152 23 72 154 153 72 73 155 154 73 29 156 155 29 28 157 156 28 23 153 157 30 76 159 158 76 77 160 159 77 25 161 160 25 31 162 161 31 30 158 162 78 0 164 163 0 15 165 164 15 79 166 165 79 78 163 166 55 60 168 167 60 61 169 168 61 34 170 169 34 19 171 170 19 26 172 171 26 55 167 172 18 66 174 173 66 67 175 174 67 36 176 175 36 47 177 176 47 21 178 177 21 18 173 178 68 38 180 179 38 23 181 180 23 28 182 181 28 69 183 182 69 68 179 183 80 40 185 184 40 17 186 185 17 53 187 186 53 81 188 187 81 80 184 188 42 82 190 189 82 83 191 190 83 58 192 191 58 19 193 192 19 34 194 193 34 42 189 194 38 44 196 195 44 45 197 196 45 13 198 197 13 72 199 198 72 23 200 199 23 38 195 200 46 4 202 201 4 21 203 202 21 47 204 203 47 46 201 204 16 48 206 205 48 49 207 206 49 41 208 207 41 25 209 208 25 77 210 209 77 16 205 210 50 69 212 211 69 28 213 212 28 29 214 213 29 51 215 214 51 50 211 215 52 30 217 216 30 31 218 217 31 81 219 218 81 53 220 219 53 52 216 220 54 9 222 221 9 11 223 222 11 60 224 223 60 55 225 224 55 54 221 225 6 56 227 226 56 57 228 227 57 35 229 228 35 8 230 229 8 6 226 230 19 58 232 231 58 59 233 232 59 27 234 233 27 26 235 234 26 19 231 235 60 11 237 236 11 17 238 237 17 40 239 238 40 35 240 239 35 57 241 240 57 61 242 241 61 60 236 242 32 62 244 243 62 63 245 244 63 33 246 245 33 32 243 246 64 74 248 247 74 22 249 248 22 44 250 249 44 38 251 250 38 68 252 251 68 65 253 252 65 64 247 253 66 56 255 254 56 6 256 255 6 39 257 256 39 37 258 257 37 71 259 258 71 67 260 259 67 66 254 260 65 68 262 261 68 69 263 262 69 50 264 263 50 12 265 264 12 37 266 265 37 39 267 266 39 65 261 267 70 62 269 268 62 32 270 269 32 20 271 270 20 36 272 271 36 67 273 272 67 71 274 273 71 70 268 274 72 13 276 275 13 2 277 276 2 73 278 277 73 72 275 278 22 74 280 279 74 75 281 280 75 41 282 281 41 49 283 282 49 24 284 283 24 22 279 284 76 3 286 285 3 16 287 286 16 77 288 287 77 76 285 288 33 78 290 289 78 79 291 290 79 20 292 291 20 32 293 292 32 33 289 293 75 80 295 294 80 81 296 295 81 31 297 296 31 25 298 297 25 41 299 298 41 75 294 299 82 43 301 300 43 10 302 301 10 83 303 302 83 82 300 303 
</DataArray>
<DataArray type="Int32" Name="offsets" format="ascii">
4 8 12 16 20 24 28 32 36 40 44 48 52 56 60 64 68 72 76 80 84 88 92 96 100 104 108 112 116 120 124 128 132 136 140 144 148 152 156 160 164 168 172 176 180 184 188 192 196 200 204 208 212 216 220 224 228 232 236 240 244 248 252 256 260 264 268 272 276 280 284 288 292 296 300 304 308 312 316 320 324 328 332 336 340 344 348 352 356 360 364 368 372 376 380 384 388 392 396 400 404 408 412 416 420 424 428 432 436 440 444 448 452 456 460 464 468 472 476 480 484 488 492 496 500 504 508 512 516 520 524 528 532 536 540 544 548 552 556 560 564 568 572 576 580 584 588 592 596 600 604 608 612 616 620 624 628 632 636 640 644 648 652 656 660 664 668 672 676 680 684 688 692 696 700 704 708 712 716 720 724 728 732 736 740 744 748 752 756 760 764 768 772 776 780 784 788 792 796 800 804 808 812 816 820 824 828 832 836 840 844 848 852 856 860 864 868 872 876 880 
</DataArray>
<DataArray type="UInt8" Name="types" format="ascii">
7 7 7 7 7 7 7 7 7 7 7 7 7 7 7 7 7 7 7 7 7 7 7 7 7 7 7 7 7 7 7 7 7 7 7 7 7 7 7 7 7 7 7 7 7 7 7 7 7 7 7 7 7 7 7 7 7 7 7 7 7 7 7 7 7 7 7 7 7 7 7 7 7 7 7 7 7 7 7 7 7 7 7 7 7 7 7 7 7 7 7 7 7 7 7 7 7 7 7 7 7 7 7 7 7 7 7 7 7 7 7 7 7 7 7 7 7 7 7 7 7 7 7 7 7 7 7 7 7 7 7 7 7 7 7 7 7 7 7 7 7 7 7 7 7 7 7 7 7 7 7 7 7 7 7 7 7 7 7 7 7 7 7 7 7 7 7 7 7 7 7 7 7 7 7 7 7 7 7 7 7 7 7 7 7 7 7 7 7 7 7 7 7 7 7 7 7 7 7 7 7 7 7 7 7 7 7 7 7 7 7 7 7 7 7 7 7 7 7 7 
</DataArray>
</Cells>
<CellData Scalars="wall variable 0">
<DataArray type="Float64" Name="wall length" format="ascii">
0.459497 0.792762 0.579607 0.620862 0.162172 0.60076 0.136286 0.873139 0.650902 0.611906 0.410583 0.39483 0.846413 0.542495 0.542392 0.378058 0.103378 0.39483 0.549617 0.0682686 0.559868 0.0656978 0.81281 0.473853 0.951205 0.362258 1.02441 0.140915 0.456867 0.968401 0.525882 0.831528 0.162172 0.459497 0.831528 0.564577 0.910377 0.0509294 0.484309 1.00203 0.437807 0.146172 0.907992 0.505417 0.60076 0.0685745 0.592426 0.066551 0.822259 0.13653 0.580838 0.937881 0.109575 0.573166 0.322847 0.575268 0.600486 0.11755 0.77675 0.669844 0.930605 0.69946 0.77675 0.607507 0.852398 0.577773 0.973156 0.484487 0.931074 0.326004 1.00516 0.533575 0.905068 0.11179 0.524958 0.996901 0.25747 0.178138 0.89243 0.349364 0.872169 0.575268 0.991612 0.0529311 0.827788 0.592426 0.659983 0.115297 0.484487 0.505417 0.811035 0.537257 0.109575 0.605791 0.136286 0.544615 0.677695 0.11179 0.4455 0.860886 0.559868 0.576604 0.437807 0.12351 0.820425 0.410583 0.884937 0.140915 0.388313 0.659983 0.0685745 0.0680426 0.930605 0.603225 0.588075 0.326004 0.677695 0.693869 0.873139 0.605791 0.937881 0.6415 0.852398 0.0682437 0.588614 0.25747 0.564175 0.0857971 0.4455 0.905068 0.563802 0.968401 0.542095 0.89243 0.389454 0.12351 1.00203 0.552554 0.907992 0.477035 0.0529311 0.973156 0.448368 0.822259 0.589088 0.549617 0.378058 0.388313 1.02441 0.520095 0.931074 0.115297 0.477035 0.146172 0.576604 0.0682686 0.589088 0.066551 0.827788 0.512114 0.910377 0.540769 0.86344 0.103378 0.478895 0.600486 0.0680426 0.544615 0.060993 0.846413 0.13653 0.448368 0.542392 0.0918836 0.579607 0.0781658 0.811035 0.060993 0.860886 0.0857971 0.456867 0.620862 0.0918836 0.542495 0.0509294 0.512114 0.11626 0.573166 0.537257 0.0781658 0.792762 0.588075 0.893397 0.359601 1.00516 0.478895 0.81281 0.4938 0.0682437 0.607507 0.11755 0.400822 0.802919 0.564175 0.996901 0.508899 0.991612 0.322847 0.11626 0.86344 0.0656978 0.820425 0.389454 0.178138 0.588614 0.4938 0.611906 0.581173 0.473853 0.884937 
</DataArray>
<DataArray type="Float64" Name="wall variable 0" format="ascii">
0 0 0 0 0 0 0 0 0 0 0 0 0 0 0 0 0 0 0 0 0 0 0 0 0 0 0 0 0 0 0 0 0 0 0 0 0 0 0 0 0 0 0 0 0 0 0 0 0 0 0 0 0 0 0 0 0 0 0 0 0 0 0 0 0 0 0 0 0 0 0 0 0 0 0 0 0 0 0 0 0 0 0 0 0 0 0 0 0 0 0 0 0 0 0 0 0 0 0 0 0 0 0 0 0 0 0 0 0 0 0 0 0 0 0 0 0 0 0 0 0 0 0 0 0 0 0 0 0 0 0 0 0 0 0 0 0 0 0 0 0 0 0 0 0 0 0 0 0 0 0 0 0 0 0 0 0 0 0 0 0 0 0 0 0 0 0 0 0 0 0 0 0 0 0 0 0 0 0 0 0 0 0 0 0 0 0 0 0 0 0 0 0 0 0 0 0 0 0 0 0 0 0 0 0 0 0 0 0 0 0 0 0 0 0 0 0 0 0 0 
</DataArray>
<DataArray type="Float64" Name="wall variable 1" format="ascii">
0 0 0 0 0 0 0 0 0 0 0 0 0 0 0 0 0 0 0 0 0 0 0 0 0 0 0 0 0 0 0 0 0 0 0 0 0 0 0 0 0 0 0 0 0 0 0 0 0 0 0 0 0 0 0 0 0 0 0 0 0 0 0 0 0 0 0 0 0 0 0 0 0 0 0 0 0 0 0 0 0 0 0 0 0 0 0 0 0 0 0 0 0 0 0 0 0 0 0 0 0 0 0 0 0 0 0 0 0 0 0 0 0 0 0 0 0 0 0 0 0 0 0 0 0 0 0 0 0 0 0 0 0 0 0 0 0 0 0 0 0 0 0 0 0 0 0 0 0 0 0 0 0 0 0 0 0 0 0 0 0 0 0 0 0 0 0 0 0 0 0 0 0 0 0 0 0 0 0 0 0 0 0 0 0 0 0 0 0 0 0 0 0 0 0 0 0 0 0 0 0 0 0 0 0 0 0 0 0 0 0 0 0 0 0 0 0 0 0 0 
</DataArray>
</CellData>
</Piece>
</UnstructuredGrid>
</VTKFile>
