<VTKFile type="UnstructuredGrid" version="0.1">
<UnstructuredGrid>
<Piece  NumberOfPoints="      28" NumberOfCells="      18">
<Points>
<DataArray type="Float64" NumberOfComponents="3" format="ascii">
-0.78275 -0.78589 0 
0.781566 -0.78386 0 
-0.781369 0.767579 0 
0.782815 0.769595 0 
0.000846215 -0.783168 0 
-0.000669533 0.767075 0 
-0.0244258 -0.00182921 0 
-0.835106 -0.00980113 0 
0.0235352 0.0641924 0 
0.835558 -0.00389187 0 
-0.0402422 -0.744146 0.0
-0.062987 -0.0409407 0.0
-0.792599 -0.0481154 0.0
-0.745478 -0.746595 0.0
0.0605101 0.0208111 0.0
0.0173452 -0.0386084 0.0
0.04009 -0.741814 0.0
0.742738 -0.742436 0.0
0.791331 -0.0404648 0.0
-0.06196 0.0359053 0.0
-0.018795 0.0953248 0.0
-0.0405793 0.727919 0.0
-0.743209 0.728372 0.0
-0.791572 0.0287306 0.0
0.041065 0.730073 0.0
0.0628493 0.0974796 0.0
0.79367 0.0362037 0.0
0.746201 0.732342 0.0
</DataArray>
</Points>
<Cells>
<DataArray type="Int32" Name="connectivity" format="ascii">
4 6 11 10 6 7 12 11 7 0 13 12 0 4 10 13 8 6 15 14 6 4 16 15 4 1 17 16 1 9 18 17 9 8 14 18 6 8 20 19 8 5 21 20 5 2 22 21 2 7 23 22 7 6 19 23 5 8 25 24 8 9 26 25 9 3 27 26 3 5 24 27 
</DataArray>
<DataArray type="Int32" Name="offsets" format="ascii">
4 8 12 16 20 24 28 32 36 40 44 48 52 56 60 64 68 72 
</DataArray>
<DataArray type="UInt8" Name="types" format="ascii">
7 7 7 7 7 7 7 7 7 7 7 7 7 7 7 7 7 7 
</DataArray>
</Cells>
<CellData Scalars="wall variable 0">
<DataArray type="Float64" Name="wall length" format="ascii">
0.705796 0.745415 0.704127 0.707585 0.0717376 0.705796 0.703814 0.706402 0.749194 0.0717376 0.635614 0.703812 0.705538 0.745415 0.635614 0.749194 0.703272 0.707554 
</DataArray>
<DataArray type="Float64" Name="wall variable 0" format="ascii">
0 0 0 0 0 0 0 0 0 0 0 0 0 0 0 0 0 0 
</DataArray>
<DataArray type="Float64" Name="wall variable 1" format="ascii">
0 0 0 0 0 0 0 0 0 0 0 0 0 0 0 0 0 0 
</DataArray>
</CellData>
</Piece>
</UnstructuredGrid>
</VTKFile>
