<VTKFile type="UnstructuredGrid" version="0.1">
<UnstructuredGrid>
<Piece  NumberOfPoints="     214" NumberOfCells="      40">
<Points>
<DataArray type="Float64" NumberOfComponents="3" format="ascii">
-1.78365 -0.142513 0.0
-1.79287 -0.651063 0.0
-1.02884 -0.694077 0.0
-0.988041 -0.0740172 0.0
-1.67049 0.00461147 0.0
0.706029 -1.45299 0.0
0.0341805 -1.45082 0.0
-0.0855768 -1.55177 0.0
0.0011271 -2.44639 0.0
0.724394 -2.47579 0.0
0.135256 0.25859 0.0
0.0473137 0.689345 0.0
-0.771743 0.637173 0.0
-0.79306 0.052806 0.0
-0.187719 -0.0333143 0.0
0.138219 0.823705 0.0
0.13764 0.709497 0.0
0.225582 0.278742 0.0
0.837095 0.174956 0.0
0.904072 0.217822 0.0
0.906283 0.810312 0.0
0.900022 0.879216 0.0
1.68337 -1.84086 0.0
1.53228 -2.44476 0.0
2.51789 -2.33054 0.0
2.65299 -1.98559 0.0
-1.75696 0.0653307 0.0
-1.83198 0.571065 0.0
-2.76767 0.550219 0.0
-2.7203 -0.0264264 0.0
-1.87012 -0.0817941 0.0
-1.88545 -0.657463 0.0
-1.87623 -0.148914 0.0
-2.72641 -0.0935459 0.0
-2.77032 -0.709663 0.0
-1.89834 -0.712172 0.0
2.74505 0.045459 0.0
2.79586 0.575792 0.0
1.83485 0.645763 0.0
1.71717 0.173484 0.0
1.81314 0.0343656 0.0
-0.0397793 -0.806244 0.0
0.0402059 -1.35427 0.0
0.712054 -1.35643 0.0
0.778651 -1.31481 0.0
0.819415 -0.683899 0.0
0.792702 -0.616682 0.0
-0.0199601 -0.656121 0.0
-1.55192 -2.42866 0.0
-0.923179 -2.49303 0.0
-0.916032 -1.56578 0.0
-1.02223 -1.50345 0.0
-1.64453 -1.51683 0.0
-1.62862 -1.85347 0.0
-0.697 1.47498 0.0
-0.0272203 1.4802 0.0
0.0752759 1.56765 0.0
-0.0024292 2.36212 0.0
-0.743937 2.39819 0.0
0.848218 2.41847 0.0
0.0802479 2.36881 0.0
0.157953 1.57433 0.0
0.828628 1.57945 0.0
2.7176 -1.3159 0.0
2.7863 -0.691159 0.0
1.84135 -0.685846 0.0
1.77798 -1.21777 0.0
-1.68456 1.37423 0.0
-1.68715 1.71639 0.0
-2.6288 1.84798 0.0
-2.68781 1.28654 0.0
-1.76985 1.28052 0.0
2.73152 1.28284 0.0
2.66165 1.83108 0.0
1.73093 1.75123 0.0
1.70574 1.48331 0.0
1.83162 1.3288 0.0
-2.62525 -1.99642 0.0
-2.53188 -2.33901 0.0
-1.63468 -2.44726 0.0
-1.71138 -1.87207 0.0
1.74218 -0.68604 0.0
1.72526 -0.629307 0.0
0.909692 -0.683347 0.0
0.868928 -1.31426 0.0
1.58979 -1.31402 0.0
1.67881 -1.21796 0.0
-0.0505735 -1.37182 0.0
-0.130559 -0.823791 0.0
-0.918668 -0.855946 0.0
-0.947073 -1.42212 0.0
-0.840872 -1.48446 0.0
-0.170331 -1.47276 0.0
-0.883196 0.769949 0.0
-0.855994 1.3455 0.0
-1.59272 1.32514 0.0
-1.67802 1.23142 0.0
-1.71323 0.743439 0.0
0.985242 0.807035 0.0
0.983032 0.214544 0.0
1.62558 0.192207 0.0
1.74326 0.664485 0.0
1.7411 0.800465 0.0
0.855855 -1.40694 0.0
0.789259 -1.44856 0.0
0.807624 -2.47137 0.0
1.44407 -2.42078 0.0
1.59516 -1.81687 0.0
1.57672 -1.40671 0.0
-0.845735 1.42879 0.0
-0.780069 1.46975 0.0
-0.827007 2.39296 0.0
-1.48439 2.33472 0.0
-1.58506 1.75058 0.0
-1.58246 1.40842 0.0
-0.845604 -2.49866 0.0
-0.0812125 -2.45434 0.0
-0.167916 -1.55972 0.0
-0.838458 -1.57142 0.0
1.62005 2.35717 0.0
0.926933 2.41477 0.0
0.907343 1.57575 0.0
0.973191 1.53674 0.0
1.60882 1.52408 0.0
1.63401 1.792 0.0
-1.83282 0.638082 0.0
-1.81228 0.731559 0.0
-1.77706 1.21954 0.0
-2.69502 1.22556 0.0
-2.76851 0.617237 0.0
2.80059 0.63898 0.0
2.73841 1.22354 0.0
1.83851 1.2695 0.0
1.83742 0.844931 0.0
1.83958 0.708951 0.0
2.78668 -0.625837 0.0
2.74882 -0.0195913 0.0
1.81691 -0.0306847 0.0
1.82481 -0.56379 0.0
1.84173 -0.620524 0.0
-0.115802 -0.0884391 0.0
-0.0228627 -0.57828 0.0
0.789799 -0.53884 0.0
0.818686 0.0996791 0.0
0.207174 0.203465 0.0
1.67949 -1.37508 0.0
1.69793 -1.78524 0.0
2.66755 -1.92997 0.0
2.70813 -1.37715 0.0
1.76851 -1.27901 0.0
1.72485 -0.55465 0.0
1.71694 -0.0215448 0.0
1.62097 0.117574 0.0
0.978427 0.139912 0.0
0.91145 0.0970455 0.0
0.882563 -0.541474 0.0
0.909276 -0.60869 0.0
-1.84159 -1.33249 0.0
-1.89696 -0.776378 0.0
-2.76894 -0.773869 0.0
-2.71179 -1.35504 0.0
0.0435825 0.760314 0.0
0.0441617 0.874521 0.0
-0.0313474 1.39274 0.0
-0.701127 1.38752 0.0
-0.766792 1.34655 0.0
-0.793994 0.771005 0.0
-0.775474 0.708142 0.0
-0.134482 -0.750253 0.0
-0.114663 -0.60013 0.0
-0.207602 -0.11029 0.0
-0.812943 -0.0241694 0.0
-0.903253 -0.0812898 0.0
-0.944054 -0.70135 0.0
-0.922591 -0.782408 0.0
-0.864608 0.639722 0.0
-0.883128 0.702585 0.0
-1.71316 0.676074 0.0
-1.73371 0.582597 0.0
-1.65868 0.0768629 0.0
-0.976236 -0.00176572 0.0
-0.885925 0.0553547 0.0
-1.79348 -0.723079 0.0
-1.80637 -0.777788 0.0
-1.751 -1.3339 0.0
-1.65869 -1.42671 0.0
-1.03639 -1.41333 0.0
-1.00799 -0.847152 0.0
-1.02945 -0.766094 0.0
-1.6724 1.76945 0.0
-1.57174 2.35358 0.0
-2.49499 2.24744 0.0
-2.61405 1.90104 0.0
0.0560817 1.40836 0.0
0.131591 0.890141 0.0
0.893393 0.945652 0.0
0.8951 1.46192 0.0
0.829253 1.50093 0.0
0.158578 1.49581 0.0
2.65052 1.88383 0.0
2.53437 2.27491 0.0
1.70585 2.36915 0.0
1.71981 1.80398 0.0
-2.70339 -1.41346 0.0
-2.63884 -1.9447 0.0
-1.72497 -1.82035 0.0
-1.74088 -1.48372 0.0
-1.83319 -1.39091 0.0
0.979974 0.940031 0.0
0.986235 0.871128 0.0
1.74209 0.864558 0.0
1.74318 1.28913 0.0
1.61731 1.44364 0.0
0.981681 1.4563 0.0
</DataArray>
</Points>
<Cells>
<DataArray type="Int32" Name="connectivity" format="ascii">
0 1 2 3 4 
5 6 7 8 9 
10 11 12 13 14 
15 16 17 18 19 20 21 
22 23 24 25 
26 27 28 29 30 
31 32 33 34 35 
36 37 38 39 40 
41 42 43 44 45 46 47 
48 49 50 51 52 53 
54 55 56 57 58 
59 60 61 62 
63 64 65 66 
67 68 69 70 71 
72 73 74 75 76 
77 78 79 80 
81 82 83 84 85 86 
87 88 89 90 91 92 
93 94 95 96 97 
98 99 100 101 102 
103 104 105 106 107 108 
109 110 111 112 113 114 
115 116 117 118 
119 120 121 122 123 124 
125 126 127 128 129 
130 131 132 133 134 
135 136 137 138 139 
140 141 142 143 144 
145 146 147 148 149 
150 151 152 153 154 155 156 
157 158 159 160 
161 162 163 164 165 166 167 
168 169 170 171 172 173 174 
175 176 177 178 179 180 181 
182 183 184 185 186 187 188 
189 190 191 192 
193 194 195 196 197 198 
199 200 201 202 
203 204 205 206 207 
208 209 210 211 212 213 
</DataArray>
<DataArray type="Int32" Name="offsets" format="ascii">
5 10 15 22 26 31 36 41 48 54 59 63 67 72 77 81 87 93 98 103 109 115 119 125 130 135 140 145 150 157 161 168 175 182 189 193 199 203 208 214 
</DataArray>
<DataArray type="UInt8" Name="types" format="ascii">
7 7 7 7 7 7 7 7 7 7 7 7 7 7 7 7 7 7 7 7 7 7 7 7 7 7 7 7 7 7 7 7 7 7 7 7 7 7 7 7 
</DataArray>
</Cells>
<CellData Scalars="cell variable 4" Vectors="cell vector">
<DataArray type="Float64" NumberOfComponents="3" Name="cell vector" format="ascii">
0 1 1
0 1 1
0 1 1
0 1 1
0 1 1
0 1 1
0 1 1
0 1 1
0 1 1
0 1 1
0 1 1
0 1 1
0 1 1
0 1 1
0 1 1
0 1 1
0 1 1
0 1 1
0 1 1
0 1 1
0 1 1
0 1 1
0 1 1
0 1 1
0 1 1
0 1 1
0 1 1
0 1 1
0 1 1
0 1 1
0 1 1
0 1 1
0 1 1
0 1 1
0 1 1
0 1 1
0 1 1
0 1 1
0 1 1
0 1 1
</DataArray>
<DataArray type="Float64" Name="cell vector length" format="ascii">
0.0166331 0.0320328 0.0162357 0.0142376 0.0335486 0.0314001 0.0298815 0.0316085 0.0165572 0.0312187 0.0299455 0.0283555 0.0312366 0.0315349 0.030528 0.0301485 0.0162655 0.017068 0.0149258 0.0140381 0.0328843 0.031763 0.0310163 0.0294702 0.0312399 0.0310082 0.0311773 0.0172005 0.0343024 0.0169273 0.0300517 0.0156341 0.0163066 0.016314 0.0170607 0.0308792 0.014818 0.0295468 0.0307427 0.0142565 
</DataArray>
<DataArray type="Float64" Name="cell variable 4" format="ascii">
0 0 0 0 0 0 0 0 0 0 0 0 0 0 0 0 0 0 0 0 0 0 0 0 0 0 0 0 0 0 0 0 0 0 0 0 0 0 0 0 
</DataArray>
<DataArray type="Float64" Name="cell variable 5" format="ascii">
0 0 0 0 0 0 0 0 0 0 0 0 0 0 0 0 0 0 0 0 0 0 0 0 0 0 0 0 0 0 0 0 0 0 0 0 0 0 0 0 
</DataArray>
<DataArray type="Float64" Name="cell variable 6" format="ascii">
0 0 0 0 0 0 0 0 0 0 0 0 0 0 0 0 0 0 0 0 0 0 0 0 0 0 0 0 0 0 0 0 0 0 0 0 0 0 0 0 
</DataArray>
<DataArray type="Float64" Name="cell variable 7" format="ascii">
0 0 0 0 0 0 0 0 0 0 0 0 0 0 0 0 0 0 0 0 0 0 0 0 0 0 0 0 0 0 0 0 0 0 0 0 0 0 0 0 
</DataArray>
<DataArray type="Float64" Name="cell variable 8" format="ascii">
0 0 0 0 0 0 0 0 0 0 0 0 0 0 0 0 0 0 0 0 0 0 0 0 0 0 0 0 0 0 0 0 0 0 0 0 0 0 0 0 
</DataArray>
</CellData>
</Piece>
</UnstructuredGrid>
</VTKFile>
