<VTKFile type="UnstructuredGrid" version="0.1">
<UnstructuredGrid>
<Piece  NumberOfPoints="      44" NumberOfCells="       9">
<Points>
<DataArray type="Float64" NumberOfComponents="3" format="ascii">
-0.727855 0.0112876 0.0
-0.783545 -0.031066 0.0
-0.71792 -1.1774 0.0
-0.0758599 -1.14356 0.0
-0.10547 -0.533145 0.0
-0.131016 -0.0072775 0.0
-0.0318408 -0.56242 0.0
-0.00223032 -1.17284 0.0
0.605916 -1.20539 0.0
0.643314 -0.564894 0.0
-0.721936 0.136793 0.0
-0.125097 0.118228 0.0
-0.000807676 0.208044 0.0
-0.05824 1.22681 0.0
-0.693307 1.26247 0.0
0.697885 1.2786 0.0
0.0145901 1.23353 0.0
0.0720224 0.214759 0.0
0.630311 0.177841 0.0
0.674192 -1.17519 0.0
1.2371 -1.11957 0.0
1.31361 0.0021747 0.0
0.739976 0.00700711 0.0
0.711589 -0.534697 0.0
-0.845893 0.0926496 0.0
-0.790203 0.135003 0.0
-0.761574 1.26068 0.0
-1.29419 1.21198 0.0
-1.37217 0.101526 0.0
-0.848239 -0.0323117 0.0
-1.37452 -0.0234357 0.0
-1.30725 -1.13104 0.0
-0.782615 -1.17865 0.0
1.242 1.22471 0.0
0.762247 1.27067 0.0
0.694673 0.169912 0.0
0.741183 0.130378 0.0
1.31481 0.125545 0.0
-0.0575017 0.0309499 0.0
-0.0319559 -0.494917 0.0
0.643198 -0.497391 0.0
0.671586 0.0443129 0.0
0.625076 0.083847 0.0
0.0667874 0.120765 0.0
</DataArray>
</Points>
<Cells>
<DataArray type="Int32" Name="connectivity" format="ascii">
0 1 2 3 4 5 
6 7 8 9 
10 11 12 13 14 
15 16 17 18 
19 20 21 22 23 
24 25 26 27 28 
29 30 31 32 
33 34 35 36 37 
38 39 40 41 42 43 
</DataArray>
<DataArray type="Int32" Name="offsets" format="ascii">
6 10 15 19 24 29 33 38 44 
</DataArray>
<DataArray type="UInt8" Name="types" format="ascii">
7 7 7 7 7 7 7 7 7 
</DataArray>
</Cells>
<CellData Scalars="cell variable 4" Vectors="cell vector">
<DataArray type="Float64" NumberOfComponents="3" Name="cell vector" format="ascii">
0 1 1
0 1 1
0 1 1
0 1 1
0 1 1
0 1 1
0 1 1
0 1 1
0 1 1
</DataArray>
<DataArray type="Float64" Name="cell vector length" format="ascii">
0.129303 0.0649171 0.124818 0.115176 0.130265 0.125054 0.120824 0.122691 0.0669506 
</DataArray>
<DataArray type="Float64" Name="cell variable 4" format="ascii">
0 0 0 0 0 0 0 0 0 
</DataArray>
<DataArray type="Float64" Name="cell variable 5" format="ascii">
0 0 0 0 0 0 0 0 0 
</DataArray>
<DataArray type="Float64" Name="cell variable 6" format="ascii">
0 0 0 0 0 0 0 0 0 
</DataArray>
<DataArray type="Float64" Name="cell variable 7" format="ascii">
0 0 0 0 0 0 0 0 0 
</DataArray>
<DataArray type="Float64" Name="cell variable 8" format="ascii">
0 0 0 0 0 0 0 0 0 
</DataArray>
</CellData>
</Piece>
</UnstructuredGrid>
</VTKFile>
