<VTKFile type="UnstructuredGrid" version="0.1">
<UnstructuredGrid>
<Piece  NumberOfPoints="      38" NumberOfCells="       8">
<Points>
<DataArray type="Float64" NumberOfComponents="3" format="ascii">
-0.675621 -0.0465126 0.0
-0.730121 -0.0874377 0.0
-0.666738 -1.21441 0.0
-0.0402755 -1.17936 0.0
-0.0942414 -0.0645332 0.0
0.0313851 -1.17443 0.0
0.624334 -1.20911 0.0
0.686878 -0.0474963 0.0
0.641332 -0.00935413 0.0
0.0977129 0.0276052 0.0
-0.0225807 -0.0596018 0.0
-0.669921 0.0767445 0.0
-0.0885411 0.0587239 0.0
0.0317525 0.145931 0.0
-0.0241087 1.14571 0.0
-0.643529 1.18333 0.0
0.714048 1.19813 0.0
0.0469005 1.15221 0.0
0.102762 0.152437 0.0
0.646381 0.115477 0.0
0.691196 -1.21317 0.0
1.24429 -1.15659 0.0
1.31915 -0.0556992 0.0
0.75374 -0.0515547 0.0
-0.791203 0.0340706 0.0
-0.736703 0.0749957 0.0
-0.710312 1.18159 0.0
-1.23375 1.13235 0.0
-1.30999 0.0424492 0.0
-0.793465 -0.0886109 0.0
-1.31225 -0.0802323 0.0
-1.24594 -1.16751 0.0
-0.730081 -1.21558 0.0
1.24867 1.14429 0.0
0.777065 1.19035 0.0
0.709397 0.107695 0.0
0.754943 0.0695533 0.0
1.32036 0.0654088 0.0
</DataArray>
</Points>
<Cells>
<DataArray type="Int32" Name="connectivity" format="ascii">
0 1 2 3 4 
5 6 7 8 9 10 
11 12 13 14 15 
16 17 18 19 
20 21 22 23 
24 25 26 27 28 
29 30 31 32 
33 34 35 36 37 
</DataArray>
<DataArray type="Int32" Name="offsets" format="ascii">
5 11 16 20 24 29 33 38 
</DataArray>
<DataArray type="UInt8" Name="types" format="ascii">
7 7 7 7 7 7 7 7 
</DataArray>
</Cells>
<CellData Scalars="cell variable 4" Vectors="cell vector">
<DataArray type="Float64" NumberOfComponents="3" Name="cell vector" format="ascii">
0 1 1
0 1 1
0 1 1
0 1 1
0 1 1
0 1 1
0 1 1
0 1 1
</DataArray>
<DataArray type="Float64" Name="cell vector length" format="ascii">
0.129303 0.131868 0.124818 0.115176 0.130265 0.125054 0.120824 0.122691 
</DataArray>
<DataArray type="Float64" Name="cell variable 4" format="ascii">
0 0 0 0 0 0 0 0 
</DataArray>
<DataArray type="Float64" Name="cell variable 5" format="ascii">
0 0 0 0 0 0 0 0 
</DataArray>
<DataArray type="Float64" Name="cell variable 6" format="ascii">
0 0 0 0 0 0 0 0 
</DataArray>
<DataArray type="Float64" Name="cell variable 7" format="ascii">
0 0 0 0 0 0 0 0 
</DataArray>
<DataArray type="Float64" Name="cell variable 8" format="ascii">
0 0 0 0 0 0 0 0 
</DataArray>
</CellData>
</Piece>
</UnstructuredGrid>
</VTKFile>
