<VTKFile type="UnstructuredGrid" version="0.1">
<UnstructuredGrid>
<Piece  NumberOfPoints="     208" NumberOfCells="      39">
<Points>
<DataArray type="Float64" NumberOfComponents="3" format="ascii">
-1.68612 -0.115934 0.0
-1.69388 -0.606421 0.0
-0.953158 -0.648315 0.0
-0.918483 -0.0497441 0.0
-1.57718 0.0247824 0.0
0.712928 -1.38483 0.0
0.0661303 -1.38224 0.0
-0.048529 -1.47932 0.0
0.0348821 -2.35596 0.0
0.732622 -2.3881 0.0
0.163708 0.268427 0.0
0.0845595 0.684467 0.0
-0.711753 0.633503 0.0
-0.730663 0.0702045 0.0
-0.147888 -0.0101645 0.0
0.163481 0.813631 0.0
0.171542 0.703755 0.0
0.250691 0.287716 0.0
0.839072 0.188897 0.0
0.903731 0.228236 0.0
0.903147 0.866742 0.0
1.64525 -1.75898 0.0
1.51279 -2.35473 0.0
2.47469 -2.24244 0.0
2.60131 -1.90246 0.0
-1.66144 0.0833682 0.0
-1.73036 0.57056 0.0
-2.65027 0.55191 0.0
-2.6027 -0.00463084 0.0
-1.77038 -0.0573481 0.0
-1.78394 -0.612622 0.0
-1.77619 -0.122134 0.0
-2.6085 -0.0694171 0.0
-2.64846 -0.665245 0.0
-1.79293 -0.666014 0.0
2.69198 0.0643243 0.0
2.74163 0.576322 0.0
1.79415 0.643253 0.0
1.68743 0.187035 0.0
1.7799 0.0542737 0.0
-0.00155209 -0.757201 0.0
0.0717843 -1.2881 0.0
0.718582 -1.29069 0.0
0.782472 -1.25123 0.0
0.818053 -0.640233 0.0
0.796993 -0.57404 0.0
0.00847118 -0.611746 0.0
-1.46733 -2.33864 0.0
-0.858147 -2.4033 0.0
-0.850235 -1.49239 0.0
-0.953165 -1.43404 0.0
-1.55494 -1.44414 0.0
-1.52766 -1.76794 0.0
-0.638916 1.44621 0.0
0.00635239 1.45091 0.0
0.104115 1.53552 0.0
0.0293273 2.31424 0.0
-0.686656 2.35273 0.0
0.851999 2.37015 0.0
0.109147 2.32063 0.0
0.183934 1.54191 0.0
0.831343 1.54618 0.0
2.66861 -1.25195 0.0
2.73351 -0.647165 0.0
1.80626 -0.640309 0.0
1.74793 -1.15423 0.0
-1.59305 1.34556 0.0
-1.58284 1.67785 0.0
-2.50671 1.80727 0.0
-2.57473 1.26365 0.0
-1.67572 1.25632 0.0
2.68262 1.25961 0.0
2.59926 1.78807 0.0
1.69221 1.71129 0.0
1.67903 1.4511 0.0
1.80056 1.30345 0.0
-2.49612 -1.90697 0.0
-2.42445 -2.25068 0.0
-1.54752 -2.35639 0.0
-1.60785 -1.7857 0.0
1.70964 -0.640465 0.0
1.69588 -0.585246 0.0
0.904919 -0.639639 0.0
0.869338 -1.25063 0.0
1.56564 -1.24647 0.0
1.65131 -1.15438 0.0
-0.0156203 -1.30499 0.0
-0.0889567 -0.774094 0.0
-0.854685 -0.805906 0.0
-0.880805 -1.3546 0.0
-0.777875 -1.41295 0.0
-0.13028 -1.40208 0.0
-0.813838 0.762772 0.0
-0.791787 1.32099 0.0
-1.50401 1.29796 0.0
-1.58668 1.20871 0.0
-1.61981 0.737305 0.0
0.980104 0.256296 0.0
1.59892 0.236105 0.0
1.70563 0.692324 0.0
1.71429 1.23428 0.0
1.59276 1.38194 0.0
0.978421 1.3966 0.0
0.979521 0.894803 0.0
0.856708 -1.34103 0.0
0.792818 -1.3805 0.0
0.812512 -2.38377 0.0
1.42712 -2.33158 0.0
1.55958 -1.73584 0.0
1.55301 -1.33687 0.0
-0.781802 1.4023 0.0
-0.718672 1.44113 0.0
-0.766411 2.34765 0.0
-1.40202 2.28812 0.0
-1.48381 1.71156 0.0
-1.49402 1.37927 0.0
-0.783505 -2.40872 0.0
-0.0445853 -2.36358 0.0
-0.127996 -1.48694 0.0
-0.775592 -1.49781 0.0
1.59967 2.30932 0.0
0.927787 2.36659 0.0
0.907131 1.54262 0.0
0.970802 1.50592 0.0
1.58514 1.49126 0.0
1.59832 1.75145 0.0
-1.73141 0.635194 0.0
-1.7163 0.725891 0.0
-1.68317 1.1973 0.0
-2.58218 1.20463 0.0
-2.65132 0.616545 0.0
2.74638 0.637264 0.0
2.68961 1.20232 0.0
1.80754 1.24615 0.0
1.79889 0.704195 0.0
2.7338 -0.584064 0.0
2.69583 0.00153188 0.0
1.78375 -0.0085187 0.0
1.79278 -0.521989 0.0
1.80654 -0.577207 0.0
-0.0787871 -0.0633901 0.0
0.00562707 -0.536606 0.0
0.794149 -0.4989 0.0
0.821189 0.116383 0.0
0.232809 0.215202 0.0
1.65283 -1.3057 0.0
1.6594 -1.70467 0.0
2.61547 -1.84814 0.0
2.65918 -1.31134 0.0
1.7385 -1.21361 0.0
1.69563 -0.513259 0.0
1.68659 0.00021044 0.0
1.59412 0.132972 0.0
0.975303 0.153163 0.0
0.910644 0.113823 0.0
0.883604 -0.501459 0.0
0.904664 -0.567653 0.0
-1.74568 -1.26673 0.0
-1.79168 -0.728114 0.0
-2.64721 -0.727345 0.0
-2.59841 -1.28983 0.0
0.0809272 0.752961 0.0
0.0728658 0.862837 0.0
0.00259023 1.36556 0.0
-0.642678 1.36086 0.0
-0.705808 1.32203 0.0
-0.727859 0.763819 0.0
-0.715385 0.701997 0.0
-0.0926997 -0.703066 0.0
-0.0826764 -0.557611 0.0
-0.167091 -0.084395 0.0
-0.749866 -0.00402595 0.0
-0.836891 -0.0567878 0.0
-0.871566 -0.655358 0.0
-0.858428 -0.734879 0.0
-0.801296 0.635948 0.0
-0.813771 0.69777 0.0
-1.61974 0.672302 0.0
-1.63485 0.581605 0.0
-1.56593 0.0944141 0.0
-0.907232 0.0198876 0.0
-0.820207 0.0726495 0.0
-1.69466 -0.676028 0.0
-1.70365 -0.729421 0.0
-1.65765 -1.26804 0.0
-1.5687 -1.35623 0.0
-0.966925 -1.34614 0.0
-0.940805 -0.797442 0.0
-0.953943 -0.717922 0.0
-1.56852 1.72971 0.0
-1.48673 2.30627 0.0
-2.38802 2.20241 0.0
-2.49239 1.85913 0.0
0.0867896 1.38057 0.0
0.157065 0.877842 0.0
0.896732 0.930954 0.0
0.895631 1.43275 0.0
0.83196 1.46945 0.0
0.184552 1.46519 0.0
2.58854 1.83969 0.0
2.49232 2.22933 0.0
1.68283 2.32078 0.0
1.68148 1.7629 0.0
-2.58995 -1.34616 0.0
-2.50925 -1.85633 0.0
-1.62099 -1.73506 0.0
-1.64827 -1.41126 0.0
-1.73721 -1.32306 0.0
</DataArray>
</Points>
<Cells>
<DataArray type="Int32" Name="connectivity" format="ascii">
0 1 2 3 4 
5 6 7 8 9 
10 11 12 13 14 
15 16 17 18 19 20 
21 22 23 24 
25 26 27 28 29 
30 31 32 33 34 
35 36 37 38 39 
40 41 42 43 44 45 46 
47 48 49 50 51 52 
53 54 55 56 57 
58 59 60 61 
62 63 64 65 
66 67 68 69 70 
71 72 73 74 75 
76 77 78 79 
80 81 82 83 84 85 
86 87 88 89 90 91 
92 93 94 95 96 
97 98 99 100 101 102 103 
104 105 106 107 108 109 
110 111 112 113 114 115 
116 117 118 119 
120 121 122 123 124 125 
126 127 128 129 130 
131 132 133 134 
135 136 137 138 139 
140 141 142 143 144 
145 146 147 148 149 
150 151 152 153 154 155 156 
157 158 159 160 
161 162 163 164 165 166 167 
168 169 170 171 172 173 174 
175 176 177 178 179 180 181 
182 183 184 185 186 187 188 
189 190 191 192 
193 194 195 196 197 198 
199 200 201 202 
203 204 205 206 207 
</DataArray>
<DataArray type="Int32" Name="offsets" format="ascii">
5 10 15 21 25 30 35 40 47 53 58 62 66 71 76 80 86 92 97 104 110 116 120 126 131 135 140 145 150 157 161 168 175 182 189 193 199 203 208 
</DataArray>
<DataArray type="UInt8" Name="types" format="ascii">
7 7 7 7 7 7 7 7 7 7 7 7 7 7 7 7 7 7 7 7 7 7 7 7 7 7 7 7 7 7 7 7 7 7 7 7 7 7 7 
</DataArray>
</Cells>
<CellData Scalars="cell variable 4" Vectors="cell vector">
<DataArray type="Float64" NumberOfComponents="3" Name="cell vector" format="ascii">
0 1 1
0 1 1
0 1 1
0 1 1
0 1 1
0 1 1
0 1 1
0 1 1
0 1 1
0 1 1
0 1 1
0 1 1
0 1 1
0 1 1
0 1 1
0 1 1
0 1 1
0 1 1
0 1 1
0 1 1
0 1 1
0 1 1
0 1 1
0 1 1
0 1 1
0 1 1
0 1 1
0 1 1
0 1 1
0 1 1
0 1 1
0 1 1
0 1 1
0 1 1
0 1 1
0 1 1
0 1 1
0 1 1
0 1 1
</DataArray>
<DataArray type="Float64" Name="cell vector length" format="ascii">
0.0166331 0.0320328 0.0162357 0.0142376 0.0335486 0.0314001 0.0298815 0.0316085 0.0165572 0.0312187 0.0299455 0.0283555 0.0312366 0.0315349 0.030528 0.0301485 0.0162655 0.017068 0.0149258 0.0282946 0.0328843 0.031763 0.0310163 0.0294702 0.0312399 0.0310082 0.0311773 0.0172005 0.0343024 0.0169273 0.0300517 0.0156341 0.0163066 0.016314 0.0170607 0.0308792 0.014818 0.0295468 0.0307427 
</DataArray>
<DataArray type="Float64" Name="cell variable 4" format="ascii">
0 0 0 0 0 0 0 0 0 0 0 0 0 0 0 0 0 0 0 0 0 0 0 0 0 0 0 0 0 0 0 0 0 0 0 0 0 0 0 
</DataArray>
<DataArray type="Float64" Name="cell variable 5" format="ascii">
0 0 0 0 0 0 0 0 0 0 0 0 0 0 0 0 0 0 0 0 0 0 0 0 0 0 0 0 0 0 0 0 0 0 0 0 0 0 0 
</DataArray>
<DataArray type="Float64" Name="cell variable 6" format="ascii">
0 0 0 0 0 0 0 0 0 0 0 0 0 0 0 0 0 0 0 0 0 0 0 0 0 0 0 0 0 0 0 0 0 0 0 0 0 0 0 
</DataArray>
<DataArray type="Float64" Name="cell variable 7" format="ascii">
0 0 0 0 0 0 0 0 0 0 0 0 0 0 0 0 0 0 0 0 0 0 0 0 0 0 0 0 0 0 0 0 0 0 0 0 0 0 0 
</DataArray>
<DataArray type="Float64" Name="cell variable 8" format="ascii">
0 0 0 0 0 0 0 0 0 0 0 0 0 0 0 0 0 0 0 0 0 0 0 0 0 0 0 0 0 0 0 0 0 0 0 0 0 0 0 
</DataArray>
</CellData>
</Piece>
</UnstructuredGrid>
</VTKFile>
