<VTKFile type="UnstructuredGrid" version="0.1">
<UnstructuredGrid>
<Piece  NumberOfPoints="      82" NumberOfCells="      16">
<Points>
<DataArray type="Float64" NumberOfComponents="3" format="ascii">
-0.985182 -0.0863424 0.0
-0.950667 -0.746421 0.0
-0.925793 -0.814134 0.0
-0.103919 -0.834661 0.0
-0.0630289 -0.765862 0.0
-0.127558 -0.0653912 0.0
-0.919543 -0.0147939 0.0
-0.00706094 -0.909767 0.0
0.0334063 -1.54804 0.0
0.827259 -1.55642 0.0
0.87936 -0.817066 0.0
0.0338296 -0.840968 0.0
0.0415675 0.170484 0.0
-0.0302353 0.795554 0.0
-0.887708 0.762586 0.0
-0.919143 0.701331 0.0
-0.911196 0.0695973 0.0
-0.11921 0.0189999 0.0
0.0964242 0.868641 0.0
0.0657143 0.805909 0.0
0.137517 0.180839 0.0
0.883277 0.125168 0.0
0.941623 0.735359 0.0
0.916247 0.84527 0.0
1.00183 -0.754884 0.0
0.963391 -0.814258 0.0
0.91129 -1.55361 0.0
1.59048 -1.48368 0.0
1.69057 -0.859519 0.0
-1.00097 0.0646748 0.0
-1.00891 0.696408 0.0
-1.68173 0.736552 0.0
-1.68355 0.0167352 0.0
-1.0666 -0.00687376 0.0
-1.03451 -0.745493 0.0
-1.06903 -0.0854141 0.0
-1.68598 -0.0618051 0.0
-1.67102 -0.796427 0.0
1.69441 0.0445712 0.0
1.69083 0.724899 0.0
1.02496 0.721982 0.0
0.966614 0.111791 0.0
1.02093 0.0450889 0.0
-0.0284953 -0.0556474 0.0
0.0360335 -0.756118 0.0
0.881564 -0.732217 0.0
0.920007 -0.672843 0.0
0.932362 -0.0265367 0.0
0.878043 0.040165 0.0
0.132282 0.0958362 0.0
-0.922288 -0.893991 0.0
-0.892071 -1.56487 0.0
-0.0599468 -1.5528 0.0
-0.100414 -0.914518 0.0
-0.0302706 0.872686 0.0
0.000439336 0.935418 0.0
-0.0316029 1.50698 0.0
-0.85695 1.52031 0.0
-0.887743 0.839718 0.0
0.0644449 1.51177 0.0
0.0964871 0.940209 0.0
0.91631 0.916838 0.0
0.946768 1.53424 0.0
1.0231 -0.0311677 0.0
1.01074 -0.677474 0.0
1.69948 -0.782109 0.0
1.69657 -0.0316854 0.0
-1.00281 0.773605 0.0
-0.971371 0.83486 0.0
-0.940578 1.51545 0.0
-1.58057 1.45182 0.0
-1.67562 0.813749 0.0
1.68888 0.800677 0.0
1.60329 1.46729 0.0
1.02809 1.52507 0.0
0.997634 0.907671 0.0
1.02301 0.797761 0.0
-1.00275 -0.889082 0.0
-1.02763 -0.82137 0.0
-1.66413 -0.872304 0.0
-1.59932 -1.49241 0.0
-0.972536 -1.55996 0.0
</DataArray>
</Points>
<Cells>
<DataArray type="Int32" Name="connectivity" format="ascii">
0 1 2 3 4 5 6 
7 8 9 10 11 
12 13 14 15 16 17 
18 19 20 21 22 23 
24 25 26 27 28 
29 30 31 32 33 
34 35 36 37 
38 39 40 41 42 
43 44 45 46 47 48 49 
50 51 52 53 
54 55 56 57 58 
59 60 61 62 
63 64 65 66 
67 68 69 70 71 
72 73 74 75 76 
77 78 79 80 81 
</DataArray>
<DataArray type="Int32" Name="offsets" format="ascii">
7 12 18 24 29 34 38 43 50 54 59 63 67 72 77 82 
</DataArray>
<DataArray type="UInt8" Name="types" format="ascii">
7 7 7 7 7 7 7 7 7 7 7 7 7 7 7 7 
</DataArray>
</Cells>
<CellData Scalars="cell variable 4" Vectors="cell vector">
<DataArray type="Float64" NumberOfComponents="3" Name="cell vector" format="ascii">
0 1 1
0 1 1
0 1 1
0 1 1
0 1 1
0 1 1
0 1 1
0 1 1
0 1 1
0 1 1
0 1 1
0 1 1
0 1 1
0 1 1
0 1 1
0 1 1
</DataArray>
<DataArray type="Float64" Name="cell vector length" format="ascii">
0.0670685 0.0649171 0.0631096 0.0573502 0.067851 0.06264 0.0599332 0.0626166 0.0669506 0.062235 0.0617085 0.0578257 0.0624139 0.0624141 0.0600748 0.0608911 
</DataArray>
<DataArray type="Float64" Name="cell variable 4" format="ascii">
0 0 0 0 0 0 0 0 0 0 0 0 0 0 0 0 
</DataArray>
<DataArray type="Float64" Name="cell variable 5" format="ascii">
0 0 0 0 0 0 0 0 0 0 0 0 0 0 0 0 
</DataArray>
<DataArray type="Float64" Name="cell variable 6" format="ascii">
0 0 0 0 0 0 0 0 0 0 0 0 0 0 0 0 
</DataArray>
<DataArray type="Float64" Name="cell variable 7" format="ascii">
0 0 0 0 0 0 0 0 0 0 0 0 0 0 0 0 
</DataArray>
<DataArray type="Float64" Name="cell variable 8" format="ascii">
0 0 0 0 0 0 0 0 0 0 0 0 0 0 0 0 
</DataArray>
</CellData>
</Piece>
</UnstructuredGrid>
</VTKFile>
