<VTKFile type="UnstructuredGrid" version="0.1">
<UnstructuredGrid>
<Piece  NumberOfPoints="      14" NumberOfCells="       8">
<Points>
<DataArray type="Float64" NumberOfComponents="3" format="ascii">
-0.539485 -0.539494 0 
0.539486 -0.539494 0 
-0.539486 0.539494 0 
0.539485 0.539494 0 
0.00165564 -0.539802 0 
-0.00165564 0.539802 0 
-0.512508 -0.485599 0.0
-0.0254816 -0.485877 0.0
-0.0284617 0.485767 0.0
-0.512509 0.485489 0.0
0.0284617 -0.485767 0.0
0.512509 -0.485489 0.0
0.512508 0.485599 0.0
0.0254816 0.485877 0.0
</DataArray>
</Points>
<Cells>
<DataArray type="Int32" Name="connectivity" format="ascii">
0 4 7 6 4 5 8 7 5 2 9 8 2 0 6 9 4 1 11 10 1 3 12 11 3 5 13 12 5 4 10 13 
</DataArray>
<DataArray type="Int32" Name="offsets" format="ascii">
4 8 12 16 20 24 28 32 
</DataArray>
<DataArray type="UInt8" Name="types" format="ascii">
7 7 7 7 7 7 7 7 
</DataArray>
</Cells>
<CellData Scalars="wall variable 0">
<DataArray type="Float64" Name="wall length" format="ascii">
0.508746 1.0152 0.505634 1.01438 0.505634 1.01438 0.508746 1.0152 
</DataArray>
<DataArray type="Float64" Name="wall variable 0" format="ascii">
0 0 0 0 0 0 0 0 
</DataArray>
<DataArray type="Float64" Name="wall variable 1" format="ascii">
0 0 0 0 0 0 0 0 
</DataArray>
</CellData>
</Piece>
</UnstructuredGrid>
</VTKFile>
