<VTKFile type="UnstructuredGrid" version="0.1">
<UnstructuredGrid>
<Piece  NumberOfPoints="      64" NumberOfCells="      44">
<Points>
<DataArray type="Float64" NumberOfComponents="3" format="ascii">
-1.36291 -1.21278 0 
1.29122 -1.20196 0 
-1.3501 1.29837 0 
1.29591 1.31267 0 
-0.0384805 -1.23062 0 
-0.0242112 1.31444 0 
-0.100954 0.0564091 0 
-1.43874 0.0410794 0 
0.0413004 0.160567 0 
1.37809 0.0682424 0 
0.654665 -1.26458 0 
0.731222 0.0727554 0 
-0.782138 0.0793012 0 
-0.747825 1.35187 0 
-0.84545 0.0306837 0 
-0.769954 -1.26513 0 
0.753561 1.36349 0 
0.678841 0.119195 0 
-0.0681245 -0.545788 0 
0.704077 -0.548242 0 
-0.748004 0.0125048 0.0
-0.804985 -0.031251 0.0
-0.737038 -1.19749 0.0
-0.0787123 -1.16642 0.0
-0.105392 -0.550075 0.0
-0.134938 -0.0080981 0.0
-0.0297082 -0.580321 0.0
-0.00302858 -1.19667 0.0
0.620803 -1.22723 0.0
0.665274 -0.582529 0.0
-0.74195 0.140348 0.0
-0.128885 0.119745 0.0
-0.000855926 0.213488 0.0
-0.0598164 1.25197 0.0
-0.711069 1.28566 0.0
0.714891 1.30306 0.0
0.0148958 1.25892 0.0
0.0738563 0.220431 0.0
0.647643 0.183196 0.0
0.69053 -1.19602 0.0
1.26343 -1.13966 0.0
1.34161 0.00351454 0.0
0.759431 0.00757622 0.0
0.735 -0.551321 0.0
-0.868735 0.0948057 0.0
-0.811754 0.138561 0.0
-0.780873 1.28388 0.0
-1.32292 1.23573 0.0
-1.4027 0.104162 0.0
-0.871171 -0.0324962 0.0
-1.40513 -0.0231401 0.0
-1.33689 -1.15161 0.0
-0.803224 -1.19873 0.0
1.26875 1.24924 0.0
0.780637 1.29498 0.0
0.713389 0.175107 0.0
0.760532 0.133311 0.0
1.34272 0.12925 0.0
-0.0593205 0.030498 0.0
-0.0297743 -0.511479 0.0
0.665207 -0.513688 0.0
0.689638 0.0452097 0.0
0.642495 0.0870054 0.0
0.0687082 0.124241 0.0
</DataArray>
</Points>
<Cells>
<DataArray type="Int32" Name="connectivity" format="ascii">
12 14 21 20 14 15 22 21 15 4 23 22 4 18 24 23 18 6 25 24 6 12 20 25 18 4 27 26 4 10 28 27 10 19 29 28 19 18 26 29 12 6 31 30 6 8 32 31 8 5 33 32 5 13 34 33 13 12 30 34 16 5 36 35 5 8 37 36 8 17 38 37 17 16 35 38 10 1 40 39 1 9 41 40 9 11 42 41 11 19 43 42 19 10 39 43 14 12 45 44 12 13 46 45 13 2 47 46 2 7 48 47 7 14 44 48 14 7 50 49 7 0 51 50 0 15 52 51 15 14 49 52 3 16 54 53 16 17 55 54 17 11 56 55 11 9 57 56 9 3 53 57 6 18 59 58 18 19 60 59 19 11 61 60 11 17 62 61 17 8 63 62 8 6 58 63 
</DataArray>
<DataArray type="Int32" Name="offsets" format="ascii">
4 8 12 16 20 24 28 32 36 40 44 48 52 56 60 64 68 72 76 80 84 88 92 96 100 104 108 112 116 120 124 128 132 136 140 144 148 152 156 160 164 168 172 176 
</DataArray>
<DataArray type="UInt8" Name="types" format="ascii">
7 7 7 7 7 7 7 7 7 7 7 7 7 7 7 7 7 7 7 7 7 7 7 7 7 7 7 7 7 7 7 7 7 7 7 7 7 7 7 7 7 7 7 7 
</DataArray>
</Cells>
<CellData Scalars="wall variable 0">
<DataArray type="Float64" Name="wall length" format="ascii">
0.0664191 1.15232 0.614814 0.601474 0.516038 0.564701 0.601474 0.580453 0.643607 0.74677 0.564701 0.140851 1.00322 0.607336 1.13013 0.657116 1.00322 0.528465 1.11164 0.563373 1.10956 0.581204 0.541723 0.643607 0.0664191 1.13013 0.533045 1.0991 0.533567 0.533567 1.09663 0.526425 1.15232 0.480895 1.11164 0.057825 0.581204 1.08825 0.516038 0.74677 0.541723 0.057825 0.528465 0.140851 
</DataArray>
<DataArray type="Float64" Name="wall variable 0" format="ascii">
0 0 0 0 0 0 0 0 0 0 0 0 0 0 0 0 0 0 0 0 0 0 0 0 0 0 0 0 0 0 0 0 0 0 0 0 0 0 0 0 0 0 0 0 
</DataArray>
<DataArray type="Float64" Name="wall variable 1" format="ascii">
0 0 0 0 0 0 0 0 0 0 0 0 0 0 0 0 0 0 0 0 0 0 0 0 0 0 0 0 0 0 0 0 0 0 0 0 0 0 0 0 0 0 0 0 
</DataArray>
</CellData>
</Piece>
</UnstructuredGrid>
</VTKFile>
