<VTKFile type="UnstructuredGrid" version="0.1">
<UnstructuredGrid>
<Piece  NumberOfPoints="      56" NumberOfCells="      38">
<Points>
<DataArray type="Float64" NumberOfComponents="3" format="ascii">
-1.09948 -1.07799 0 
1.10322 -1.06977 0 
-1.09297 1.05277 0 
1.10284 1.06196 0 
0.00227985 -1.08358 0 
0.0048953 1.05485 0 
-0.0487428 0.000440814 0 
-1.16512 -0.013272 0 
0.0562004 0.0817619 0 
1.17449 0.00685019 0 
0.557305 -1.13521 0 
0.604653 0.0071798 0 
-0.587411 0.0145851 0 
-0.575855 1.10575 0 
-0.642291 -0.016757 0 
-0.587382 -1.12699 0 
0.635462 1.10144 0 
0.557908 0.0359757 0 
-0.560836 -0.0417672 0.0
-0.610227 -0.0699751 0.0
-0.560809 -1.06919 0.0
-0.0301137 -1.03012 0.0
-0.076034 -0.054497 0.0
0.0300374 -1.02638 0.0
0.52956 -1.07285 0.0
0.572173 -0.0446996 0.0
0.530102 -0.0187833 0.0
0.0785659 0.0224244 0.0
-0.0158829 -0.0507646 0.0
-0.556482 0.0668196 0.0
-0.0716806 0.0540897 0.0
0.0227682 0.127279 0.0
-0.0234064 1.00306 0.0
-0.546081 1.04887 0.0
0.603729 1.05007 0.0
0.0362192 1.00813 0.0
0.0823938 0.132352 0.0
0.53393 0.0911448 0.0
0.587309 -1.07602 0.0
1.07863 -1.01712 0.0
1.14278 -0.0481688 0.0
0.629921 -0.0478721 0.0
-0.663432 0.0371673 0.0
-0.61404 0.0653752 0.0
-0.603639 1.04743 0.0
-1.06905 0.999743 0.0
-1.13398 0.0403038 0.0
-0.665248 -0.0707332 0.0
-1.1358 -0.0675967 0.0
-1.07672 -1.02585 0.0
-0.61583 -1.06995 0.0
1.07911 1.00777 0.0
0.658468 1.04331 0.0
0.58867 0.0843897 0.0
0.630741 0.0584734 0.0
1.14359 0.0581767 0.0
</DataArray>
</Points>
<Cells>
<DataArray type="Int32" Name="connectivity" format="ascii">
12 14 19 18 14 15 20 19 15 4 21 20 4 6 22 21 6 12 18 22 4 10 24 23 10 11 25 24 11 17 26 25 17 8 27 26 8 6 28 27 6 4 23 28 12 6 30 29 6 8 31 30 8 5 32 31 5 13 33 32 13 12 29 33 16 5 35 34 5 8 36 35 8 17 37 36 17 16 34 37 10 1 39 38 1 9 40 39 9 11 41 40 11 10 38 41 14 12 43 42 12 13 44 43 13 2 45 44 2 7 46 45 7 14 42 46 14 7 48 47 7 0 49 48 0 15 50 49 15 14 47 50 3 16 52 51 16 17 53 52 17 11 54 53 11 9 55 54 9 3 51 55 
</DataArray>
<DataArray type="Int32" Name="offsets" format="ascii">
4 8 12 16 20 24 28 32 36 40 44 48 52 56 60 64 68 72 76 80 84 88 92 96 100 104 108 112 116 120 124 128 132 136 140 144 148 152 
</DataArray>
<DataArray type="UInt8" Name="types" format="ascii">
7 7 7 7 7 7 7 7 7 7 7 7 7 7 7 7 7 7 7 7 7 7 7 7 7 7 7 7 7 7 7 7 7 7 7 7 7 7 
</DataArray>
</Cells>
<CellData Scalars="wall variable 0">
<DataArray type="Float64" Name="wall length" format="ascii">
0.0542101 1.02022 0.504715 0.951402 0.456527 0.474312 1.04649 0.0470551 0.426534 0.108892 0.951402 0.456527 0.108892 0.854887 0.497716 1.00056 0.542161 0.854887 0.426534 0.991788 0.489512 0.952285 0.517106 1.04649 0.0542101 1.00056 0.463793 0.944133 0.475207 0.475207 0.943023 0.459435 1.02022 0.419085 0.991788 0.0470551 0.517106 0.935736 
</DataArray>
<DataArray type="Float64" Name="wall variable 0" format="ascii">
0 0 0 0 0 0 0 0 0 0 0 0 0 0 0 0 0 0 0 0 0 0 0 0 0 0 0 0 0 0 0 0 0 0 0 0 0 0 
</DataArray>
<DataArray type="Float64" Name="wall variable 1" format="ascii">
0 0 0 0 0 0 0 0 0 0 0 0 0 0 0 0 0 0 0 0 0 0 0 0 0 0 0 0 0 0 0 0 0 0 0 0 0 0 
</DataArray>
</CellData>
</Piece>
</UnstructuredGrid>
</VTKFile>
