<VTKFile type="UnstructuredGrid" version="0.1">
<UnstructuredGrid>
<Piece  NumberOfPoints="      14" NumberOfCells="       8">
<Points>
<DataArray type="Float64" NumberOfComponents="3" format="ascii">
-0.651921 -0.651997 0 
0.651923 -0.651999 0 
-0.651923 0.651999 0 
0.651921 0.651997 0 
0.00200112 -0.652357 0 
-0.00200112 0.652357 0 
-0.619322 -0.586864 0.0
-0.030792 -0.587188 0.0
-0.034394 0.587054 0.0
-0.619323 0.586732 0.0
0.034394 -0.587054 0.0
0.619323 -0.586732 0.0
0.619322 0.586864 0.0
0.030792 0.587188 0.0
</DataArray>
</Points>
<Cells>
<DataArray type="Int32" Name="connectivity" format="ascii">
0 4 7 6 4 5 8 7 5 2 9 8 2 0 6 9 4 1 11 10 1 3 12 11 3 5 13 12 5 4 10 13 
</DataArray>
<DataArray type="Int32" Name="offsets" format="ascii">
4 8 12 16 20 24 28 32 
</DataArray>
<DataArray type="UInt8" Name="types" format="ascii">
7 7 7 7 7 7 7 7 
</DataArray>
</Cells>
<CellData Scalars="wall variable 0">
<DataArray type="Float64" Name="wall length" format="ascii">
0.598736 1.19464 0.595073 1.1939 0.595073 1.1939 0.598736 1.19464 
</DataArray>
<DataArray type="Float64" Name="wall variable 0" format="ascii">
0 0 0 0 0 0 0 0 
</DataArray>
<DataArray type="Float64" Name="wall variable 1" format="ascii">
0 0 0 0 0 0 0 0 
</DataArray>
</CellData>
</Piece>
</UnstructuredGrid>
</VTKFile>
