<VTKFile type="UnstructuredGrid" version="0.1">
<UnstructuredGrid>
<Piece  NumberOfPoints="     183" NumberOfCells="     131">
<Points>
<DataArray type="Float64" NumberOfComponents="3" format="ascii">
-2.1034 -2.02159 0 
2.23294 -2.00226 0 
-2.07303 1.91192 0 
2.24824 1.93868 0 
0.0499064 -2.12192 0 
0.0954781 2.0132 0 
-0.0607607 -0.0675434 0 
-2.2376 -0.062394 0 
0.223502 0.182713 0 
2.40198 -0.00540393 0 
1.28111 -2.1102 0 
1.49081 -0.011091 0 
-1.30105 0.0188202 0 
-1.17752 2.00705 0 
-1.4035 -0.106472 0 
-1.22847 -2.1163 0 
1.44173 2.02065 0 
1.40534 0.106175 0 
0.073878 -1.15322 0 
1.39143 -1.10813 0 
-1.30681 -1.21713 0 
-0.0270605 -1.24392 0 
0.0790743 1.15379 0 
-1.25596 1.09078 0 
0.163665 1.23418 0 
1.41935 1.19552 0 
1.46929 -1.0247 0 
2.39611 -1.13238 0 
-1.32869 1.00717 0 
-2.23572 1.02753 0 
2.41747 1.02083 0 
1.52341 1.0523 0 
-1.38576 -1.13256 0 
-2.25131 -1.16947 0 
0.732682 -1.12366 0 
0.767588 0.098279 0 
-0.733589 -1.20591 0 
-0.683445 -0.0419514 0 
-0.579057 1.11354 0 
-0.599948 -0.0079248 0 
0.829904 0.122811 0 
0.832029 1.20567 0 
0.672859 -1.15516 0 
0.701036 -2.16966 0 
-0.518684 1.14268 0 
-0.574149 2.05981 0 
-0.645939 -2.16271 0 
-0.631757 -1.24256 0 
0.795691 2.03804 0 
0.766948 1.22078 0 
-1.31644 0.472653 0 
-2.24381 0.460646 0 
-1.28128 -1.15553 0.0
-0.765383 -1.14544 0.0
-0.720253 -0.0978718 0.0
-1.2761 -0.0431774 0.0
-1.3683 -0.15594 0.0
-1.35234 -1.07942 0.0
0.640779 -1.20427 0.0
0.101696 -1.20252 0.0
0.0108518 -1.28415 0.0
0.080122 -2.07434 0.0
0.666138 -2.11731 0.0
0.0492332 1.09299 0.0
-0.488749 1.083 0.0
-0.543084 1.05678 0.0
-0.561887 0.0474553 0.0
-0.0766182 -0.00620141 0.0
0.179218 0.219029 0.0
0.740096 0.158565 0.0
0.796181 0.180644 0.0
0.798093 1.15522 0.0
0.73952 1.16882 0.0
0.196566 1.18088 0.0
0.120434 1.10852 0.0
0.250419 0.234556 0.0
1.50353 -1.0783 0.0
1.43346 -1.15339 0.0
1.33417 -2.05525 0.0
2.19081 -1.95811 0.0
2.33767 -1.17521 0.0
-1.34803 0.0361801 0.0
-1.36188 0.44463 0.0
-2.19652 0.433823 0.0
-2.19093 -0.0369127 0.0
-1.44024 -0.076583 0.0
-1.42968 -1.08141 0.0
-1.44564 -0.157926 0.0
-2.19634 -0.118255 0.0
-2.20867 -1.11462 0.0
2.35504 0.0457773 0.0
2.36899 0.969389 0.0
1.56434 0.99771 0.0
1.45807 0.146198 0.0
1.53499 0.0406589 0.0
0.104329 -1.0872 0.0
0.643411 -1.08895 0.0
0.697252 -1.06059 0.0
0.728668 0.0391527 0.0
0.23899 0.115143 0.0
-0.0168462 -0.110087 0.0
-1.20072 -2.07116 0.0
-0.676441 -2.11292 0.0
-0.663677 -1.2848 0.0
-0.755326 -1.25181 0.0
-1.27122 -1.2619 0.0
-0.488059 1.18769 0.0
0.0499234 1.19768 0.0
0.126055 1.27004 0.0
0.0646868 1.97116 0.0
-0.537977 2.0131 0.0
0.761896 1.99789 0.0
0.131704 1.97554 0.0
0.193072 1.27442 0.0
0.736027 1.26236 0.0
1.53648 -0.0645316 0.0
1.51712 -0.976777 0.0
2.35126 -1.07369 0.0
2.35654 -0.0594132 0.0
-1.36379 1.05466 0.0
-1.29833 1.12991 0.0
-1.22774 1.95455 0.0
-2.0337 1.86893 0.0
-2.18012 1.07298 0.0
2.36384 1.0683 0.0
2.21153 1.89436 0.0
1.48567 1.96814 0.0
1.46553 1.22552 0.0
1.55918 1.09662 0.0
-1.34767 -1.25587 0.0
-1.41873 -1.17976 0.0
-2.19773 -1.21298 0.0
-2.06461 -1.97988 0.0
-1.27717 -2.06513 0.0
0.770482 -1.06164 0.0
1.36336 -1.04767 0.0
1.43343 -0.972574 0.0
1.45279 -0.0603291 0.0
1.37588 0.0452101 0.0
0.857983 0.0601826 0.0
0.801898 0.0381039 0.0
-0.695407 -1.15164 0.0
-0.603758 -1.18463 0.0
-0.0595309 -1.18585 0.0
0.0313137 -1.10422 0.0
-0.0898611 -0.127112 0.0
-0.57513 -0.0734557 0.0
-0.650277 -0.10408 0.0
-0.615924 1.05703 0.0
-1.22514 1.03654 0.0
-1.2906 0.961289 0.0
-1.27957 0.480226 0.0
-1.26572 0.071776 0.0
-0.709874 0.0170815 0.0
-0.634727 0.0477055 0.0
0.861851 0.177516 0.0
1.37975 0.162544 0.0
1.48601 1.01406 0.0
1.39236 1.14295 0.0
0.863763 1.15209 0.0
0.760402 -1.17235 0.0
0.706562 -1.2007 0.0
0.731921 -2.11374 0.0
1.25399 -2.06024 0.0
1.35328 -1.15837 0.0
-0.609117 1.15752 0.0
-0.554781 1.18375 0.0
-0.6047 2.00916 0.0
-1.14773 1.96167 0.0
-1.21833 1.13703 0.0
-0.612917 -2.11679 0.0
0.0133445 -2.08008 0.0
-0.0559257 -1.28988 0.0
-0.600153 -1.28866 0.0
1.40812 1.98007 0.0
0.826687 1.99573 0.0
0.800818 1.26019 0.0
0.859391 1.24659 0.0
1.38798 1.23746 0.0
-1.36336 0.499487 0.0
-1.37439 0.980551 0.0
-2.19071 0.998876 0.0
-2.198 0.488681 0.0
</DataArray>
</Points>
<Cells>
<DataArray type="Int32" Name="connectivity" format="ascii">
20 36 53 52 36 37 54 53 37 12 55 54 12 14 56 55 14 32 57 56 32 20 52 57 42 18 59 58 18 21 60 59 21 4 61 60 4 43 62 61 43 42 58 62 22 44 64 63 44 38 65 64 38 39 66 65 39 6 67 66 6 8 68 67 8 22 63 68 35 40 70 69 40 41 71 70 41 49 72 71 49 24 73 72 24 22 74 73 22 8 75 74 8 35 69 75 26 19 77 76 19 10 78 77 10 1 79 78 1 27 80 79 27 26 76 80 12 50 82 81 50 51 83 82 51 7 84 83 7 14 85 84 14 12 81 85 32 14 87 86 14 7 88 87 7 33 89 88 33 32 86 89 9 30 91 90 30 31 92 91 31 17 93 92 17 11 94 93 11 9 90 94 18 42 96 95 42 34 97 96 34 35 98 97 35 8 99 98 8 6 100 99 6 18 95 100 15 46 102 101 46 47 103 102 47 36 104 103 36 20 105 104 20 15 101 105 44 22 107 106 22 24 108 107 24 5 109 108 5 45 110 109 45 44 106 110 48 5 112 111 5 24 113 112 24 49 114 113 49 48 111 114 11 26 116 115 26 27 117 116 27 9 118 117 9 11 115 118 28 23 120 119 23 13 121 120 13 2 122 121 2 29 123 122 29 28 119 123 30 3 125 124 3 16 126 125 16 25 127 126 25 31 128 127 31 30 124 128 20 32 130 129 32 33 131 130 33 0 132 131 0 15 133 132 15 20 129 133 34 19 135 134 19 26 136 135 26 11 137 136 11 17 138 137 17 40 139 138 40 35 140 139 35 34 134 140 36 47 142 141 47 21 143 142 21 18 144 143 18 6 145 144 6 39 146 145 39 37 147 146 37 36 141 147 38 23 149 148 23 28 150 149 28 50 151 150 50 12 152 151 12 37 153 152 37 39 154 153 39 38 148 154 40 17 156 155 17 31 157 156 31 25 158 157 25 41 159 158 41 40 155 159 34 42 161 160 42 43 162 161 43 10 163 162 10 19 164 163 19 34 160 164 38 44 166 165 44 45 167 166 45 13 168 167 13 23 169 168 23 38 165 169 46 4 171 170 4 21 172 171 21 47 173 172 47 46 170 173 16 48 175 174 48 49 176 175 49 41 177 176 41 25 178 177 25 16 174 178 50 28 180 179 28 29 181 180 29 51 182 181 51 50 179 182 
</DataArray>
<DataArray type="Int32" Name="offsets" format="ascii">
4 8 12 16 20 24 28 32 36 40 44 48 52 56 60 64 68 72 76 80 84 88 92 96 100 104 108 112 116 120 124 128 132 136 140 144 148 152 156 160 164 168 172 176 180 184 188 192 196 200 204 208 212 216 220 224 228 232 236 240 244 248 252 256 260 264 268 272 276 280 284 288 292 296 300 304 308 312 316 320 324 328 332 336 340 344 348 352 356 360 364 368 372 376 380 384 388 392 396 400 404 408 412 416 420 424 428 432 436 440 444 448 452 456 460 464 468 472 476 480 484 488 492 496 500 504 508 512 516 520 524 
</DataArray>
<DataArray type="UInt8" Name="types" format="ascii">
7 7 7 7 7 7 7 7 7 7 7 7 7 7 7 7 7 7 7 7 7 7 7 7 7 7 7 7 7 7 7 7 7 7 7 7 7 7 7 7 7 7 7 7 7 7 7 7 7 7 7 7 7 7 7 7 7 7 7 7 7 7 7 7 7 7 7 7 7 7 7 7 7 7 7 7 7 7 7 7 7 7 7 7 7 7 7 7 7 7 7 7 7 7 7 7 7 7 7 7 7 7 7 7 7 7 7 7 7 7 7 7 7 7 7 7 7 7 7 7 7 7 7 7 7 7 7 7 7 7 7 
</DataArray>
</Cells>
<CellData Scalars="wall variable 0">
<DataArray type="Float64" Name="wall length" format="ascii">
0.471226 1.0217 0.498851 0.124725 0.826997 0.0919112 0.476163 0.103919 0.759185 0.517616 0.92636 0.477454 0.0531066 0.976088 0.424745 0.286452 0.784981 0.0518668 0.973008 0.0544087 0.48995 0.0901208 0.784981 0.429362 0.0898714 0.876556 0.817518 0.756673 0.827866 0.362658 0.918763 0.425921 0.730183 0.124725 0.826997 0.730183 0.907402 0.772937 0.839059 0.797497 0.767501 0.110881 0.7961 0.476163 0.0530821 1.05026 0.429362 0.286452 0.876029 0.473981 0.863213 0.0866547 0.471226 0.790042 0.477454 0.0901208 0.677389 0.534902 0.850617 0.563367 0.677389 0.48995 0.793084 0.810002 0.827866 0.923364 0.7961 0.0875837 0.803358 0.769889 0.77087 0.805147 0.801327 0.692449 0.727472 0.142347 0.797497 0.0919112 0.772937 0.742665 0.754066 0.790042 0.540109 0.0898714 0.810002 0.110881 0.459342 0.0518668 1.05026 0.0866547 0.485327 0.103919 0.876029 0.424745 0.0699878 1.0217 0.556902 0.0875837 0.428832 0.362658 0.498851 0.0699878 0.976088 0.459342 0.767501 0.142347 0.48857 0.973008 0.0530821 0.92636 0.470237 0.876556 0.540109 0.0531066 0.850617 0.489864 0.803358 0.556902 0.556553 0.759185 0.485327 0.863213 0.526028 0.793084 0.0544087 0.48857 0.727472 0.428832 0.805147 0.463946 0.918763 
</DataArray>
<DataArray type="Float64" Name="wall variable 0" format="ascii">
0 0 0 0 0 0 0 0 0 0 0 0 0 0 0 0 0 0 0 0 0 0 0 0 0 0 0 0 0 0 0 0 0 0 0 0 0 0 0 0 0 0 0 0 0 0 0 0 0 0 0 0 0 0 0 0 0 0 0 0 0 0 0 0 0 0 0 0 0 0 0 0 0 0 0 0 0 0 0 0 0 0 0 0 0 0 0 0 0 0 0 0 0 0 0 0 0 0 0 0 0 0 0 0 0 0 0 0 0 0 0 0 0 0 0 0 0 0 0 0 0 0 0 0 0 0 0 0 0 0 0 
</DataArray>
<DataArray type="Float64" Name="wall variable 1" format="ascii">
0 0 0 0 0 0 0 0 0 0 0 0 0 0 0 0 0 0 0 0 0 0 0 0 0 0 0 0 0 0 0 0 0 0 0 0 0 0 0 0 0 0 0 0 0 0 0 0 0 0 0 0 0 0 0 0 0 0 0 0 0 0 0 0 0 0 0 0 0 0 0 0 0 0 0 0 0 0 0 0 0 0 0 0 0 0 0 0 0 0 0 0 0 0 0 0 0 0 0 0 0 0 0 0 0 0 0 0 0 0 0 0 0 0 0 0 0 0 0 0 0 0 0 0 0 0 0 0 0 0 0 
</DataArray>
</CellData>
</Piece>
</UnstructuredGrid>
</VTKFile>
