<VTKFile type="UnstructuredGrid" version="0.1">
<UnstructuredGrid>
<Piece  NumberOfPoints="      62" NumberOfCells="      12">
<Points>
<DataArray type="Float64" NumberOfComponents="3" format="ascii">
-0.879632 -0.0776997 0.0
-0.845206 -0.733149 0.0
-0.0861991 -0.747518 0.0
-0.0604682 -0.681374 0.0
-0.112161 -0.057222 0.0
-0.818499 -0.0192386 0.0
0.00093216 -0.816012 0.0
0.0348043 -1.41197 0.0
0.746016 -1.4288 0.0
0.78929 -0.733359 0.0
0.026663 -0.749868 0.0
0.0402004 0.142254 0.0
-0.0156225 0.698759 0.0
-0.794961 0.677516 0.0
-0.810155 0.0559093 0.0
-0.103817 0.0179259 0.0
0.0796295 0.768908 0.0
0.0689738 0.707694 0.0
0.124797 0.151189 0.0
0.786202 0.102997 0.0
0.828185 0.747989 0.0
0.824218 -1.39235 0.0
1.45096 -1.32489 0.0
1.53813 -0.0645373 0.0
0.909574 -0.0664575 0.0
0.867492 -0.696908 0.0
-0.949493 0.0284672 0.0
-0.88836 0.0869284 0.0
-0.873167 0.708535 0.0
-0.845184 1.34948 0.0
-1.43735 1.29143 0.0
-1.52602 0.0439144 0.0
-0.952321 -0.11233 0.0
-1.52885 -0.096883 0.0
-1.45585 -1.33947 0.0
-0.873796 -1.39729 0.0
-0.917896 -0.767779 0.0
1.46017 1.30811 0.0
0.926735 1.35503 0.0
0.902441 0.770723 0.0
0.860458 0.125731 0.0
0.911437 0.0724023 0.0
1.53999 0.0743225 0.0
-0.0243223 -0.0484652 0.0
0.0273707 -0.672617 0.0
0.789998 -0.656109 0.0
0.832079 -0.0256585 0.0
0.781101 0.0276701 0.0
0.119695 0.0758627 0.0
-0.842328 -0.805975 0.0
-0.798228 -1.43548 0.0
-0.049449 -1.4163 0.0
-0.0833212 -0.820345 0.0
-0.016801 0.769145 0.0
-0.00614537 0.830359 0.0
-0.0276436 1.3652 0.0
-0.768157 1.38884 0.0
-0.79614 0.747902 0.0
0.0588485 1.36941 0.0
0.0803467 0.834565 0.0
0.828902 0.813647 0.0
0.853197 1.39795 0.0
</DataArray>
</Points>
<Cells>
<DataArray type="Int32" Name="connectivity" format="ascii">
0 1 2 3 4 5 
6 7 8 9 10 
11 12 13 14 15 
16 17 18 19 20 
21 22 23 24 25 
26 27 28 29 30 31 
32 33 34 35 36 
37 38 39 40 41 42 
43 44 45 46 47 48 
49 50 51 52 
53 54 55 56 57 
58 59 60 61 
</DataArray>
<DataArray type="Int32" Name="offsets" format="ascii">
6 11 16 21 26 32 37 43 49 53 58 62 
</DataArray>
<DataArray type="UInt8" Name="types" format="ascii">
7 7 7 7 7 7 7 7 7 7 7 7 
</DataArray>
</Cells>
<CellData Scalars="cell variable 4" Vectors="cell vector">
<DataArray type="Float64" NumberOfComponents="3" Name="cell vector" format="ascii">
0 1 1
0 1 1
0 1 1
0 1 1
0 1 1
0 1 1
0 1 1
0 1 1
0 1 1
0 1 1
0 1 1
0 1 1
</DataArray>
<DataArray type="Float64" Name="cell vector length" format="ascii">
0.0670685 0.0649171 0.0631096 0.0573502 0.130265 0.125054 0.120824 0.122691 0.0669506 0.062235 0.0617085 0.0578257 
</DataArray>
<DataArray type="Float64" Name="cell variable 4" format="ascii">
0 0 0 0 0 0 0 0 0 0 0 0 
</DataArray>
<DataArray type="Float64" Name="cell variable 5" format="ascii">
0 0 0 0 0 0 0 0 0 0 0 0 
</DataArray>
<DataArray type="Float64" Name="cell variable 6" format="ascii">
0 0 0 0 0 0 0 0 0 0 0 0 
</DataArray>
<DataArray type="Float64" Name="cell variable 7" format="ascii">
0 0 0 0 0 0 0 0 0 0 0 0 
</DataArray>
<DataArray type="Float64" Name="cell variable 8" format="ascii">
0 0 0 0 0 0 0 0 0 0 0 0 
</DataArray>
</CellData>
</Piece>
</UnstructuredGrid>
</VTKFile>
