<VTKFile type="UnstructuredGrid" version="0.1">
<UnstructuredGrid>
<Piece  NumberOfPoints="     116" NumberOfCells="      82">
<Points>
<DataArray type="Float64" NumberOfComponents="3" format="ascii">
-1.63238 -1.52677 0 
1.62533 -1.52001 0 
-1.61338 1.48726 0 
1.63425 1.50391 0 
-0.0113768 -1.5884 0 
0.0147754 1.54314 0 
-0.0826051 -0.0244629 0 
-1.72102 -0.0215098 0 
0.0960366 0.143852 0 
1.73332 0.00730714 0 
0.870682 -1.59771 0 
0.985014 0.00788237 0 
-0.962589 0.0317564 0 
-0.902277 1.55796 0 
-1.03552 -0.047742 0 
-0.935959 -1.60182 0 
0.995134 1.56811 0 
0.924659 0.0819954 0 
-0.0109065 -0.802764 0 
0.928572 -0.776207 0 
-0.969533 -0.856399 0 
-0.0563404 -0.879207 0 
0.0162557 0.838375 0 
-0.936492 0.801744 0 
0.0503778 0.908077 0 
0.961292 0.882109 0 
0.971286 -0.710235 0 
1.73655 -0.826497 0 
-0.97142 0.733683 0 
-1.71899 0.778287 0 
1.72934 0.763226 0 
0.989487 0.759986 0 
-0.997171 -0.781163 0 
-1.7044 -0.837757 0 
-0.985182 -0.0863424 0.0
-0.950667 -0.746421 0.0
-0.925793 -0.814134 0.0
-0.103919 -0.834661 0.0
-0.0630289 -0.765862 0.0
-0.127558 -0.0653912 0.0
-0.919543 -0.0147939 0.0
-0.00706094 -0.909767 0.0
0.0334063 -1.54804 0.0
0.827259 -1.55642 0.0
0.87936 -0.817066 0.0
0.0338296 -0.840968 0.0
0.0415675 0.170484 0.0
-0.0302353 0.795554 0.0
-0.887708 0.762586 0.0
-0.919143 0.701331 0.0
-0.911196 0.0695973 0.0
-0.11921 0.0189999 0.0
0.0964242 0.868641 0.0
0.0657143 0.805909 0.0
0.137517 0.180839 0.0
0.883277 0.125168 0.0
0.941623 0.735359 0.0
0.916247 0.84527 0.0
1.00183 -0.754884 0.0
0.963391 -0.814258 0.0
0.91129 -1.55361 0.0
1.59048 -1.48368 0.0
1.69057 -0.859519 0.0
-1.00097 0.0646748 0.0
-1.00891 0.696408 0.0
-1.68173 0.736552 0.0
-1.68355 0.0167352 0.0
-1.0666 -0.00687376 0.0
-1.03451 -0.745493 0.0
-1.06903 -0.0854141 0.0
-1.68598 -0.0618051 0.0
-1.67102 -0.796427 0.0
1.69441 0.0445712 0.0
1.69083 0.724899 0.0
1.02496 0.721982 0.0
0.966614 0.111791 0.0
1.02093 0.0450889 0.0
-0.0284953 -0.0556474 0.0
0.0360335 -0.756118 0.0
0.881564 -0.732217 0.0
0.920007 -0.672843 0.0
0.932362 -0.0265367 0.0
0.878043 0.040165 0.0
0.132282 0.0958362 0.0
-0.922288 -0.893991 0.0
-0.892071 -1.56487 0.0
-0.0599468 -1.5528 0.0
-0.100414 -0.914518 0.0
-0.0302706 0.872686 0.0
0.000439336 0.935418 0.0
-0.0316029 1.50698 0.0
-0.85695 1.52031 0.0
-0.887743 0.839718 0.0
0.0644449 1.51177 0.0
0.0964871 0.940209 0.0
0.91631 0.916838 0.0
0.946768 1.53424 0.0
1.0231 -0.0311677 0.0
1.01074 -0.677474 0.0
1.69948 -0.782109 0.0
1.69657 -0.0316854 0.0
-1.00281 0.773605 0.0
-0.971371 0.83486 0.0
-0.940578 1.51545 0.0
-1.58057 1.45182 0.0
-1.67562 0.813749 0.0
1.68888 0.800677 0.0
1.60329 1.46729 0.0
1.02809 1.52507 0.0
0.997634 0.907671 0.0
1.02301 0.797761 0.0
-1.00275 -0.889082 0.0
-1.02763 -0.82137 0.0
-1.66413 -0.872304 0.0
-1.59932 -1.49241 0.0
-0.972536 -1.55996 0.0
</DataArray>
</Points>
<Cells>
<DataArray type="Int32" Name="connectivity" format="ascii">
14 32 35 34 32 20 36 35 20 21 37 36 21 18 38 37 18 6 39 38 6 12 40 39 12 14 34 40 21 4 42 41 4 10 43 42 10 19 44 43 19 18 45 44 18 21 41 45 8 22 47 46 22 23 48 47 23 28 49 48 28 12 50 49 12 6 51 50 6 8 46 51 24 22 53 52 22 8 54 53 8 17 55 54 17 31 56 55 31 25 57 56 25 24 52 57 26 19 59 58 19 10 60 59 10 1 61 60 1 27 62 61 27 26 58 62 12 28 64 63 28 29 65 64 29 7 66 65 7 14 67 66 14 12 63 67 32 14 69 68 14 7 70 69 7 33 71 70 33 32 68 71 9 30 73 72 30 31 74 73 31 17 75 74 17 11 76 75 11 9 72 76 6 18 78 77 18 19 79 78 19 26 80 79 26 11 81 80 11 17 82 81 17 8 83 82 8 6 77 83 20 15 85 84 15 4 86 85 4 21 87 86 21 20 84 87 22 24 89 88 24 5 90 89 5 13 91 90 13 23 92 91 23 22 88 92 5 24 94 93 24 25 95 94 25 16 96 95 16 5 93 96 11 26 98 97 26 27 99 98 27 9 100 99 9 11 97 100 28 23 102 101 23 13 103 102 13 2 104 103 2 29 105 104 29 28 101 105 30 3 107 106 3 16 108 107 16 25 109 108 25 31 110 109 31 30 106 110 20 32 112 111 32 33 113 112 33 0 114 113 0 15 115 114 15 20 111 115 
</DataArray>
<DataArray type="Int32" Name="offsets" format="ascii">
4 8 12 16 20 24 28 32 36 40 44 48 52 56 60 64 68 72 76 80 84 88 92 96 100 104 108 112 116 120 124 128 132 136 140 144 148 152 156 160 164 168 172 176 180 184 188 192 196 200 204 208 212 216 220 224 228 232 236 240 244 248 252 256 260 264 268 272 276 280 284 288 292 296 300 304 308 312 316 320 324 328 
</DataArray>
<DataArray type="UInt8" Name="types" format="ascii">
7 7 7 7 7 7 7 7 7 7 7 7 7 7 7 7 7 7 7 7 7 7 7 7 7 7 7 7 7 7 7 7 7 7 7 7 7 7 7 7 7 7 7 7 7 7 7 7 7 7 7 7 7 7 7 7 7 7 7 7 7 7 7 7 7 7 7 7 7 7 7 7 7 7 7 7 7 7 7 7 7 7 
</DataArray>
</Cells>
<CellData Scalars="wall variable 0">
<DataArray type="Float64" Name="wall length" format="ascii">
0.611923 0.0677783 0.816586 0.0732218 0.640508 0.717066 0.0855762 0.625294 0.725501 0.732408 0.821838 0.0732218 0.573283 0.846411 0.0640695 0.58089 0.717066 0.189851 0.0644606 0.573283 0.672623 0.56745 0.106864 0.825225 0.0652465 0.732408 0.658052 0.612164 0.715328 0.58089 0.69866 0.673914 0.607534 0.0855762 0.611923 0.607534 0.690693 0.67995 0.635656 0.700067 0.56745 0.0749419 0.662161 0.640508 0.821838 0.0652465 0.591505 0.0749419 0.672623 0.189851 0.665266 0.764631 0.625294 0.816586 0.0644606 0.560956 0.756502 0.675378 0.846411 0.560956 0.825225 0.616022 0.813056 0.591505 0.715328 0.701631 0.662161 0.0640695 0.675378 0.621362 0.626029 0.69866 0.651063 0.559495 0.616022 0.106864 0.700067 0.0677783 0.67995 0.604182 0.611364 0.665266 
</DataArray>
<DataArray type="Float64" Name="wall variable 0" format="ascii">
0 0 0 0 0 0 0 0 0 0 0 0 0 0 0 0 0 0 0 0 0 0 0 0 0 0 0 0 0 0 0 0 0 0 0 0 0 0 0 0 0 0 0 0 0 0 0 0 0 0 0 0 0 0 0 0 0 0 0 0 0 0 0 0 0 0 0 0 0 0 0 0 0 0 0 0 0 0 0 0 0 0 
</DataArray>
<DataArray type="Float64" Name="wall variable 1" format="ascii">
0 0 0 0 0 0 0 0 0 0 0 0 0 0 0 0 0 0 0 0 0 0 0 0 0 0 0 0 0 0 0 0 0 0 0 0 0 0 0 0 0 0 0 0 0 0 0 0 0 0 0 0 0 0 0 0 0 0 0 0 0 0 0 0 0 0 0 0 0 0 0 0 0 0 0 0 0 0 0 0 0 0 
</DataArray>
</CellData>
</Piece>
</UnstructuredGrid>
</VTKFile>
