<VTKFile type="UnstructuredGrid" version="0.1">
<UnstructuredGrid>
<Piece  NumberOfPoints="      56" NumberOfCells="      38">
<Points>
<DataArray type="Float64" NumberOfComponents="3" format="ascii">
-1.12179 -1.09765 0 
1.12515 -1.08936 0 
-1.1149 1.07145 0 
1.12543 1.08092 0 
0.00172687 -1.10496 0 
0.00559491 1.075 0 
-0.0507131 0.000124934 0 
-1.18878 -0.0138729 0 
0.0583856 0.0829888 0 
1.19809 0.00660794 0 
0.570236 -1.15588 0 
0.620446 0.00685335 0 
-0.603654 0.0156639 0 
-0.589262 1.12625 0 
-0.658721 -0.0186229 0 
-0.601734 -1.14919 0 
0.650646 1.12508 0 
0.573841 0.0385998 0 
-0.5763 -0.0418589 0.0
-0.62586 -0.072717 0.0
-0.574572 -1.09023 0.0
-0.0314572 -1.05042 0.0
-0.0786531 -0.0558439 0.0
0.0302064 -1.04653 0.0
0.541865 -1.09236 0.0
0.587054 -0.0458997 0.0
0.545109 -0.0173278 0.0
0.0811992 0.0226222 0.0
-0.0169896 -0.0519553 0.0
-0.571771 0.0687738 0.0
-0.0741241 0.0547888 0.0
0.0240648 0.129366 0.0
-0.0234469 1.02218 0.0
-0.558818 1.0683 0.0
0.618252 1.07253 0.0
0.0377059 1.02746 0.0
0.0852175 0.134652 0.0
0.549127 0.0947017 0.0
0.600799 -1.09566 0.0
1.10022 -1.03579 0.0
1.16587 -0.0494244 0.0
0.645988 -0.0492035 0.0
-0.680094 0.0364215 0.0
-0.630534 0.0672796 0.0
-0.617581 1.06681 0.0
-1.09066 1.01749 0.0
-1.15715 0.0406965 0.0
-0.681949 -0.0735313 0.0
-1.159 -0.0692563 0.0
-1.09871 -1.04465 0.0
-0.630661 -1.09104 0.0
1.10136 1.02587 0.0
0.674047 1.06562 0.0
0.604922 0.0877866 0.0
0.646867 0.0592147 0.0
1.16675 0.0589939 0.0
</DataArray>
</Points>
<Cells>
<DataArray type="Int32" Name="connectivity" format="ascii">
12 14 19 18 14 15 20 19 15 4 21 20 4 6 22 21 6 12 18 22 4 10 24 23 10 11 25 24 11 17 26 25 17 8 27 26 8 6 28 27 6 4 23 28 12 6 30 29 6 8 31 30 8 5 32 31 5 13 33 32 13 12 29 33 16 5 35 34 5 8 36 35 8 17 37 36 17 16 34 37 10 1 39 38 1 9 40 39 9 11 41 40 11 10 38 41 14 12 43 42 12 13 44 43 13 2 45 44 2 7 46 45 7 14 42 46 14 7 48 47 7 0 49 48 0 15 50 49 15 14 47 50 3 16 52 51 16 17 53 52 17 11 54 53 11 9 55 54 9 3 51 55 
</DataArray>
<DataArray type="Int32" Name="offsets" format="ascii">
4 8 12 16 20 24 28 32 36 40 44 48 52 56 60 64 68 72 76 80 84 88 92 96 100 104 108 112 116 120 124 128 132 136 140 144 148 152 
</DataArray>
<DataArray type="UInt8" Name="types" format="ascii">
7 7 7 7 7 7 7 7 7 7 7 7 7 7 7 7 7 7 7 7 7 7 7 7 7 7 7 7 7 7 7 7 7 7 7 7 7 7 
</DataArray>
</Cells>
<CellData Scalars="wall variable 0">
<DataArray type="Float64" Name="wall length" format="ascii">
0.0553291 1.0318 0.515356 0.967843 0.466718 0.484536 1.05869 0.0480338 0.436106 0.111851 0.967843 0.466718 0.111851 0.869582 0.508228 1.012 0.553262 0.869582 0.436106 1.00171 0.496895 0.967814 0.523554 1.05869 0.0553291 1.012 0.470667 0.959393 0.481043 0.481043 0.958196 0.466162 1.0318 0.425218 1.00171 0.0480338 0.523554 0.950699 
</DataArray>
<DataArray type="Float64" Name="wall variable 0" format="ascii">
0 0 0 0 0 0 0 0 0 0 0 0 0 0 0 0 0 0 0 0 0 0 0 0 0 0 0 0 0 0 0 0 0 0 0 0 0 0 
</DataArray>
<DataArray type="Float64" Name="wall variable 1" format="ascii">
0 0 0 0 0 0 0 0 0 0 0 0 0 0 0 0 0 0 0 0 0 0 0 0 0 0 0 0 0 0 0 0 0 0 0 0 0 0 
</DataArray>
</CellData>
</Piece>
</UnstructuredGrid>
</VTKFile>
