<VTKFile type="UnstructuredGrid" version="0.1">
<UnstructuredGrid>
<Piece  NumberOfPoints="      56" NumberOfCells="      38">
<Points>
<DataArray type="Float64" NumberOfComponents="3" format="ascii">
-1.21822 -1.18131 0 
1.21967 -1.17222 0 
-1.2088 1.15036 0 
1.22213 1.16178 0 
-0.000640852 -1.19394 0 
0.00832992 1.16011 0 
-0.0580707 -0.00142646 0 
-1.28979 -0.0166917 0 
0.0671066 0.0901801 0 
1.29934 0.00641553 0 
0.626093 -1.23722 0 
0.688734 0.00931407 0 
-0.671289 0.0174569 0 
-0.646835 1.20608 0 
-0.729472 -0.024786 0 
-0.663776 -1.23539 0 
0.715468 1.2126 0 
0.640029 0.0486807 0 
-0.640752 -0.044564 0.0
-0.693117 -0.0825826 0.0
-0.633991 -1.17213 0.0
-0.037169 -1.13482 0.0
-0.0888558 -0.0615591 0.0
0.0309496 -1.13025 0.0
0.59501 -1.1692 0.0
0.651387 -0.0473256 0.0
0.607553 -0.0118957 0.0
0.0919224 0.0254538 0.0
-0.0207372 -0.0569921 0.0
-0.635469 0.0743485 0.0
-0.083572 0.0573534 0.0
0.0290876 0.139799 0.0
-0.0238114 1.10274 0.0
-0.61346 1.14411 0.0
0.680152 1.15607 0.0
0.0437281 1.10883 0.0
0.0966271 0.145897 0.0
0.612258 0.108547 0.0
0.659065 -1.173 0.0
1.19328 -1.1145 0.0
1.26499 -0.0537296 0.0
0.715442 -0.0511209 0.0
-0.75178 0.0346652 0.0
-0.699416 0.0726838 0.0
-0.677407 1.14245 0.0
-1.18318 1.0923 0.0
-1.25606 0.0419501 0.0
-0.753883 -0.08362 0.0
-1.25817 -0.0763351 0.0
-1.19376 -1.12449 0.0
-0.694757 -1.17317 0.0
1.19659 1.10284 0.0
0.7406 1.14857 0.0
0.672705 0.101052 0.0
0.71654 0.0656218 0.0
1.26609 0.0630131 0.0
</DataArray>
</Points>
<Cells>
<DataArray type="Int32" Name="connectivity" format="ascii">
12 14 19 18 14 15 20 19 15 4 21 20 4 6 22 21 6 12 18 22 4 10 24 23 10 11 25 24 11 17 26 25 17 8 27 26 8 6 28 27 6 4 23 28 12 6 30 29 6 8 31 30 8 5 32 31 5 13 33 32 13 12 29 33 16 5 35 34 5 8 36 35 8 17 37 36 17 16 34 37 10 1 39 38 1 9 40 39 9 11 41 40 11 10 38 41 14 12 43 42 12 13 44 43 13 2 45 44 2 7 46 45 7 14 42 46 14 7 48 47 7 0 49 48 0 15 50 49 15 14 47 50 3 16 52 51 16 17 53 52 17 11 54 53 11 9 55 54 9 3 51 55 
</DataArray>
<DataArray type="Int32" Name="offsets" format="ascii">
4 8 12 16 20 24 28 32 36 40 44 48 52 56 60 64 68 72 76 80 84 88 92 96 100 104 108 112 116 120 124 128 132 136 140 144 148 152 
</DataArray>
<DataArray type="UInt8" Name="types" format="ascii">
7 7 7 7 7 7 7 7 7 7 7 7 7 7 7 7 7 7 7 7 7 7 7 7 7 7 7 7 7 7 7 7 7 7 7 7 7 7 
</DataArray>
</Cells>
<CellData Scalars="wall variable 0">
<DataArray type="Float64" Name="wall length" format="ascii">
0.0604154 1.08676 0.561764 1.03882 0.51212 0.529222 1.11624 0.0525058 0.478855 0.125163 1.03882 0.51212 0.125163 0.933035 0.554393 1.06588 0.601794 0.933035 0.478855 1.0513 0.528432 1.03472 0.550999 1.11624 0.0604154 1.06588 0.500212 1.02531 0.506016 0.506016 1.02359 0.494805 1.08676 0.451604 1.0513 0.0525058 0.550999 1.01555 
</DataArray>
<DataArray type="Float64" Name="wall variable 0" format="ascii">
0 0 0 0 0 0 0 0 0 0 0 0 0 0 0 0 0 0 0 0 0 0 0 0 0 0 0 0 0 0 0 0 0 0 0 0 0 0 
</DataArray>
<DataArray type="Float64" Name="wall variable 1" format="ascii">
0 0 0 0 0 0 0 0 0 0 0 0 0 0 0 0 0 0 0 0 0 0 0 0 0 0 0 0 0 0 0 0 0 0 0 0 0 0 
</DataArray>
</CellData>
</Piece>
</UnstructuredGrid>
</VTKFile>
