<VTKFile type="UnstructuredGrid" version="0.1">
<UnstructuredGrid>
<Piece  NumberOfPoints="      28" NumberOfCells="      18">
<Points>
<DataArray type="Float64" NumberOfComponents="3" format="ascii">
-0.760555 -0.76524 0 
0.760001 -0.764049 0 
-0.759875 0.748169 0 
0.760606 0.749353 0 
0.00141066 -0.763731 0 
-0.00128725 0.748435 0 
-0.0203579 -0.003214 0 
-0.807795 -0.00925098 0 
0.0197196 0.0642653 0 
0.808131 -0.00473719 0 
-0.0383849 -0.725685 0.0
-0.0579766 -0.041219 0.0
-0.76667 -0.0466522 0.0
-0.724154 -0.727043 0.0
0.0559533 0.0217646 0.0
0.0198835 -0.0389668 0.0
0.0394752 -0.723432 0.0
0.722207 -0.723718 0.0
0.765523 -0.0403377 0.0
-0.057155 0.0337395 0.0
-0.0210852 0.0944709 0.0
-0.0399914 0.710223 0.0
-0.72272 0.709984 0.0
-0.765848 0.0283062 0.0
0.0391482 0.712317 0.0
0.0580544 0.0965649 0.0
0.767624 0.0344626 0.0
0.724852 0.713144 0.0
</DataArray>
</Points>
<Cells>
<DataArray type="Int32" Name="connectivity" format="ascii">
4 6 11 10 6 7 12 11 7 0 13 12 0 4 10 13 8 6 15 14 6 4 16 15 4 1 17 16 1 9 18 17 9 8 14 18 6 8 20 19 8 5 21 20 5 2 22 21 2 7 23 22 7 6 19 23 5 8 25 24 8 9 26 25 9 3 27 26 3 5 24 27 
</DataArray>
<DataArray type="Int32" Name="offsets" format="ascii">
4 8 12 16 20 24 28 32 36 40 44 48 52 56 60 64 68 72 
</DataArray>
<DataArray type="UInt8" Name="types" format="ascii">
7 7 7 7 7 7 7 7 7 7 7 7 7 7 7 7 7 7 
</DataArray>
</Cells>
<CellData Scalars="wall variable 0">
<DataArray type="Float64" Name="wall length" format="ascii">
0.687798 0.730612 0.686679 0.689678 0.0694525 0.687798 0.685727 0.688568 0.734314 0.0694525 0.619595 0.685728 0.688085 0.730612 0.619595 0.734314 0.686202 0.689663 
</DataArray>
<DataArray type="Float64" Name="wall variable 0" format="ascii">
0 0 0 0 0 0 0 0 0 0 0 0 0 0 0 0 0 0 
</DataArray>
<DataArray type="Float64" Name="wall variable 1" format="ascii">
0 0 0 0 0 0 0 0 0 0 0 0 0 0 0 0 0 0 
</DataArray>
</CellData>
</Piece>
</UnstructuredGrid>
</VTKFile>
