<VTKFile type="UnstructuredGrid" version="0.1">
<UnstructuredGrid>
<Piece  NumberOfPoints="      14" NumberOfCells="       8">
<Points>
<DataArray type="Float64" NumberOfComponents="3" format="ascii">
-0.692553 -0.692653 0 
0.692555 -0.692654 0 
-0.692555 0.692654 0 
0.692553 0.692653 0 
0.00212596 -0.693007 0 
-0.00212596 0.693007 0 
-0.657922 -0.623458 0.0
-0.0327113 -0.623777 0.0
-0.036538 0.623635 0.0
-0.657924 0.623318 0.0
0.036538 -0.623635 0.0
0.657924 -0.623318 0.0
0.657922 0.623458 0.0
0.0327113 0.623777 0.0
</DataArray>
</Points>
<Cells>
<DataArray type="Int32" Name="connectivity" format="ascii">
0 4 7 6 4 5 8 7 5 2 9 8 2 0 6 9 4 1 11 10 1 3 12 11 3 5 13 12 5 4 10 13 
</DataArray>
<DataArray type="Int32" Name="offsets" format="ascii">
4 8 12 16 20 24 28 32 
</DataArray>
<DataArray type="UInt8" Name="types" format="ascii">
7 7 7 7 7 7 7 7 
</DataArray>
</Cells>
<CellData Scalars="wall variable 0">
<DataArray type="Float64" Name="wall length" format="ascii">
0.633755 1.26449 0.629878 1.26376 0.629878 1.26376 0.633755 1.26449 
</DataArray>
<DataArray type="Float64" Name="wall variable 0" format="ascii">
0 0 0 0 0 0 0 0 
</DataArray>
<DataArray type="Float64" Name="wall variable 1" format="ascii">
0 0 0 0 0 0 0 0 
</DataArray>
</CellData>
</Piece>
</UnstructuredGrid>
</VTKFile>
