<VTKFile type="UnstructuredGrid" version="0.1">
<UnstructuredGrid>
<Piece  NumberOfPoints="     560" NumberOfCells="     412">
<Points>
<DataArray type="Float64" NumberOfComponents="3" format="ascii">
-3.58207 -3.19184 0 
3.48213 -3.17409 0 
-3.52665 3.10834 0 
3.49669 3.14983 0 
-0.100329 -3.40978 0 
0.0175141 3.3273 0 
-0.29309 -0.0988649 0 
-3.87742 -0.0649144 0 
0.23306 0.393192 0 
3.8344 0.0497784 0 
2.07102 -3.34861 0 
2.55397 0.020352 0 
-2.51806 0.0877442 0 
-2.2067 3.27097 0 
-2.71272 -0.16157 0 
-2.30575 -3.35394 0 
2.31815 3.29399 0 
2.38807 0.260397 0 
-0.0417103 -1.97734 0 
2.32333 -1.94956 0 
-2.49016 -2.10585 0 
-0.238033 -2.16841 0 
-0.0238815 2.07649 0 
-2.40568 2.00425 0 
0.147736 2.23751 0 
2.35872 2.16714 0 
2.47408 -1.78524 0 
3.75508 -1.88589 0 
-2.54148 1.83668 0 
-3.80107 1.81355 0 
3.78287 1.8184 0 
2.55177 1.89998 0 
-2.63576 -1.94041 0 
-3.81876 -1.95041 0 
1.18176 -1.91652 0 
1.23612 0.222522 0 
-1.49598 -2.04581 0 
-1.43809 -0.049273 0 
-1.24128 2.00276 0 
-1.28032 0.0633252 0 
1.35259 0.310273 0 
1.33987 2.15257 0 
1.07022 -2.00642 0 
1.06333 -3.4189 0 
-1.13305 2.0906 0 
-1.16892 3.34708 0 
-1.31823 -3.43491 0 
-1.32832 -2.18144 0 
1.23831 3.3655 0 
1.23553 2.23688 0 
-2.63945 0.914217 0 
-3.90088 0.859916 0 
3.87343 0.90171 0 
2.59327 1.02332 0 
3.84685 -0.914345 0 
2.56684 -0.933926 0 
-0.0937015 -0.884263 0 
1.1809 -0.815353 0 
2.39602 -2.5776 0 
3.67974 -2.70641 0 
2.51367 -0.84732 0 
1.26146 -0.91354 0 
-2.73358 -1.06472 0 
-3.90377 -1.04412 0 
0.0486106 1.09044 0 
-1.23021 1.00982 0 
-0.217023 -1.11449 0 
-1.43801 -1.15388 0 
-1.30084 1.09844 0 
-2.55718 1.05747 0 
-2.68683 -0.982794 0 
-1.52532 -1.03724 0 
-2.48278 2.52366 0 
-3.72216 2.64689 0 
0.134691 1.26635 0 
1.30786 1.34892 0 
3.7096 2.63463 0 
2.48649 2.55854 0 
-3.7657 -2.74299 0 
-2.56379 -2.61814 0 
1.37731 1.25361 0 
2.50732 1.23271 0 
1.11014 -2.65224 0 
2.26131 -2.75162 0 
-0.115136 -2.80442 0 
1.04815 -2.72476 0 
-1.18969 2.65442 0 
-2.36087 2.72363 0 
0.0365888 2.79558 0 
-1.14123 2.72003 0 
-2.45827 -2.81554 0 
-1.37347 -2.728 0 
-0.153502 -2.86313 0 
-1.29218 -2.86387 0 
0.482011 -0.838424 0 
0.539725 0.299757 0 
0.548861 -0.864713 0 
0.563561 -1.95807 0 
1.86414 -0.863693 0 
1.86215 0.24244 0 
2.40768 2.80621 0 
1.2779 2.75161 0 
-0.53888 1.03967 0 
-0.587017 -0.0261956 0 
-0.885064 -1.12783 0 
-0.813969 -0.0385578 0 
-3.2456 0.87646 0 
-3.26979 -0.0855066 0 
-1.88618 1.05865 0 
-1.93744 0.0375125 0 
0.0733924 2.75198 0 
1.22463 2.8625 0 
-0.805187 -1.15485 0 
-0.781785 -2.14965 0 
1.8085 -0.88965 0 
1.88404 -1.91404 0 
-0.60613 1.06101 0 
-0.628726 2.06482 0 
3.17832 0.0500542 0 
3.19571 0.952423 0 
3.24377 0.0240656 0 
3.22639 -0.911967 0 
-2.08714 -2.06881 0 
-2.09152 -1.02688 0 
-3.19249 0.903165 0 
-3.24311 1.81702 0 
-2.14914 -1.00557 0 
-2.04827 0.0251892 0 
3.16679 -0.936768 0 
3.18363 -1.8387 0 
0.79078 1.30751 0 
0.753745 0.30233 0 
3.24199 1.85493 0 
3.14274 0.97965 0 
-1.95261 1.07579 0 
-1.91654 1.99924 0 
0.696 1.31895 0 
0.660794 2.23209 0 
-3.34012 -1.04809 0 
-3.33232 -0.100245 0 
3.10375 -1.84826 0 
3.02426 -2.65004 0 
1.93858 0.254866 0 
1.93882 1.24287 0 
1.92561 2.16267 0 
1.88338 1.25025 0 
-3.28843 -1.94909 0 
-3.28169 -1.05712 0 
-2.65737 -0.930752 0.0
-2.17344 -0.951248 0.0
-2.08266 -0.0235676 0.0
-2.50547 0.0327319 0.0
-2.68066 -0.191651 0.0
-0.0903838 -2.88562 0.0
-0.0425288 -3.3776 0.0
1.00477 -3.38581 0.0
0.991105 -2.76109 0.0
-0.0558548 -2.83278 0.0
0.0211156 1.03423 0.0
-0.507626 0.988539 0.0
-0.550949 0.0292585 0.0
-0.286415 -0.0361438 0.0
0.18712 0.406708 0.0
0.672356 1.2708 0.0
0.167177 1.22347 0.0
0.0897048 1.06515 0.0
0.255709 0.437624 0.0
0.531708 0.353533 0.0
0.724325 0.355848 0.0
0.757658 1.26051 0.0
2.31857 -2.77176 0.0
2.14731 -3.30906 0.0
3.41731 -3.15199 0.0
3.59516 -2.73108 0.0
3.00523 -2.68035 0.0
2.43981 -2.61515 0.0
-2.66704 0.860982 0.0
-3.16478 0.851035 0.0
-3.21258 0.827001 0.0
-3.23436 -0.0387696 0.0
-2.73299 -0.107226 0.0
-2.55779 0.117156 0.0
-3.25575 -1.01074 0.0
-2.76245 -1.01758 0.0
-2.72038 -0.943841 0.0
-2.74367 -0.204739 0.0
-3.24505 -0.136282 0.0
-3.30132 -0.149547 0.0
-3.30833 -1.0026 0.0
2.58145 0.0687217 0.0
3.14337 0.0954537 0.0
3.15902 0.907586 0.0
3.11134 0.93209 0.0
2.61682 0.971391 0.0
2.43214 0.284763 0.0
0.514993 -0.918283 0.0
0.454828 -0.894624 0.0
-0.0633126 -0.935879 0.0
-0.174302 -1.14309 0.0
-0.0165206 -1.91964 0.0
0.528223 -1.9023 0.0
-2.50208 -2.59866 0.0
-2.40711 -2.77632 0.0
-1.43079 -2.69754 0.0
-1.39015 -2.20562 0.0
-1.54105 -2.08356 0.0
-2.0731 -2.10426 0.0
-2.43581 -2.13759 0.0
0.0811245 2.25566 0.0
0.0142152 2.71868 0.0
-0.0189081 2.75792 0.0
-1.07894 2.68992 0.0
-1.12256 2.63088 0.0
-1.07158 2.12344 0.0
-0.617691 2.10024 0.0
-0.0733313 2.11074 0.0
0.136182 2.72949 0.0
0.203091 2.26647 0.0
0.664843 2.26159 0.0
1.18211 2.2659 0.0
1.22024 2.72916 0.0
1.17229 2.82896 0.0
3.25291 -0.958251 0.0
3.19927 -0.980572 0.0
3.21443 -1.79231 0.0
3.72873 -1.83478 0.0
3.81132 -0.960391 0.0
-2.47799 2.02388 0.0
-2.54738 2.49134 0.0
-3.66282 2.60225 0.0
-3.73384 1.85225 0.0
-3.23168 1.85537 0.0
-2.6002 1.87306 0.0
3.7161 1.85928 0.0
3.65015 2.59389 0.0
2.54935 2.52541 0.0
2.43435 2.17315 0.0
2.60811 1.9327 0.0
3.2293 1.89216 0.0
-3.68859 -2.76622 0.0
-3.52332 -3.17019 0.0
-2.37463 -3.31608 0.0
-2.5119 -2.83152 0.0
-2.60687 -2.65386 0.0
1.8957 -0.913682 0.0
1.84563 -0.937043 0.0
1.91361 -1.859 0.0
2.30898 -1.89096 0.0
2.44465 -1.74308 0.0
2.52813 -0.976892 0.0
2.48028 -0.898947 0.0
-0.241007 -1.16874 0.0
-0.770355 -1.20506 0.0
-0.749293 -2.10038 0.0
-0.259916 -2.11726 0.0
-0.0832257 -1.9453 0.0
-1.91785 1.12241 0.0
-1.85806 1.10699 0.0
-1.33126 1.1428 0.0
-1.27765 1.95668 0.0
-1.88539 1.95351 0.0
1.84142 0.294022 0.0
1.91021 0.305205 0.0
1.91042 1.19441 0.0
1.86053 1.20105 0.0
1.40506 1.20408 0.0
1.38282 0.355072 0.0
1.13664 -2.03719 0.0
1.17257 -2.61842 0.0
2.20862 -2.70786 0.0
2.32986 -2.55125 0.0
2.26444 -1.98601 0.0
1.86908 -1.95405 0.0
1.23703 -1.95627 0.0
-1.20104 2.1161 0.0
-1.25202 2.62354 0.0
-2.30608 2.68582 0.0
-2.4158 2.50585 0.0
-2.34641 2.03839 0.0
-1.90618 2.03387 0.0
-1.29845 2.03704 0.0
-0.162308 -3.38342 0.0
-0.210163 -2.89143 0.0
-1.23498 -2.8921 0.0
-1.25842 -3.40603 0.0
2.34464 2.83064 0.0
2.26407 3.26964 0.0
1.29221 3.33399 0.0
1.2799 2.88129 0.0
1.32784 2.7815 0.0
-3.16192 0.950843 0.0
-2.66419 0.96079 0.0
-2.59015 1.08972 0.0
-2.57602 1.79101 0.0
-3.20749 1.77331 0.0
3.7556 1.7726 0.0
3.2688 1.80549 0.0
3.17948 1.01773 0.0
3.22715 0.993229 0.0
3.8371 0.947587 0.0
3.208 -0.023431 0.0
3.14909 -4.12334e-05 0.0
2.58718 -0.0267732 0.0
2.55091 -0.807678 0.0
2.59876 -0.885624 0.0
3.13872 -0.888181 0.0
3.19236 -0.86586 0.0
-0.06723 -0.823388 0.0
0.450911 -0.782133 0.0
0.502854 0.242231 0.0
0.226855 0.326322 0.0
-0.246679 -0.116529 0.0
3.06504 -1.88391 0.0
2.49834 -1.82719 0.0
2.36266 -1.97507 0.0
2.42808 -2.54031 0.0
2.9935 -2.60551 0.0
1.89696 -0.807868 0.0
2.48154 -0.793132 0.0
2.51781 -0.0122272 0.0
2.3685 0.203814 0.0
1.96396 0.198835 0.0
1.89517 0.187652 0.0
-3.2581 -1.90575 0.0
-2.67069 -1.89795 0.0
-2.75873 -1.10983 0.0
-3.25203 -1.10299 0.0
-0.573355 1.11034 0.0
-0.51283 1.09113 0.0
0.0159113 1.13683 0.0
0.0933835 1.29515 0.0
-0.0493316 2.02427 0.0
-0.593691 2.01377 0.0
-0.776851 -1.10174 0.0
-0.247504 -1.06542 0.0
-0.136514 -0.858212 0.0
-0.315963 -0.151354 0.0
-0.580498 -0.0859513 0.0
-0.784755 -0.0970773 0.0
-0.848741 -1.07742 0.0
-1.3289 1.04226 0.0
-1.85571 1.00645 0.0
-1.90184 0.0874215 0.0
-1.45243 0.00931456 0.0
-1.31043 0.110653 0.0
-1.26533 0.962497 0.0
-2.47961 -2.0471 0.0
-2.11689 -2.01377 0.0
-2.12083 -1.07603 0.0
-2.17269 -1.05685 0.0
-2.65662 -1.03636 0.0
-2.69868 -1.11009 0.0
-2.61065 -1.89821 0.0
-2.52662 2.55989 0.0
-2.41691 2.73986 0.0
-2.27815 3.23247 0.0
-3.46611 3.0861 0.0
-3.64207 2.67079 0.0
0.157457 1.31681 0.0
0.662636 1.36415 0.0
0.63095 2.18598 0.0
0.169198 2.19086 0.0
0.0147423 2.04594 0.0
3.63488 2.66168 0.0
3.44326 3.12536 0.0
2.38258 3.25511 0.0
2.46315 2.81611 0.0
2.53408 2.5932 0.0
-3.75495 -1.98654 0.0
-3.70719 -2.69985 0.0
-2.62547 -2.58749 0.0
-2.55921 -2.12643 0.0
-2.69024 -1.97753 0.0
-3.27765 -1.98534 0.0
1.89464 2.11725 0.0
1.36747 2.10815 0.0
1.33867 1.38487 0.0
1.40117 1.2991 0.0
1.85663 1.29607 0.0
1.15818 -2.69006 0.0
1.10239 -2.75534 0.0
1.11605 -3.38006 0.0
2.02297 -3.3168 0.0
2.19423 -2.77951 0.0
-0.169675 -2.18858 0.0
-0.0590676 -2.76099 0.0
0.987892 -2.6893 0.0
1.04368 -2.62402 0.0
1.00775 -2.04279 0.0
0.551759 -1.99927 0.0
0.00701563 -2.01661 0.0
-1.24056 2.68797 0.0
-1.19695 2.74702 0.0
-1.22187 3.31136 0.0
-2.15587 3.24287 0.0
-2.29463 2.75026 0.0
-0.0250948 2.82075 0.0
-0.042262 3.2993 0.0
-1.11005 3.3171 0.0
-1.08513 2.75275 0.0
-2.39469 -2.84141 0.0
-2.25743 -3.32597 0.0
-1.36866 -3.39884 0.0
-1.34522 -2.88491 0.0
-1.41838 -2.76262 0.0
-0.213979 -2.82878 0.0
-0.17945 -2.77594 0.0
-0.290057 -2.20352 0.0
-0.779434 -2.18664 0.0
-1.27131 -2.21525 0.0
-1.31195 -2.70716 0.0
-1.23879 -2.82944 0.0
0.519082 -0.78287 0.0
0.579247 -0.80653 0.0
1.14808 -0.762106 0.0
1.19778 0.171981 0.0
0.763643 0.243808 0.0
0.571025 0.241493 0.0
1.15194 -0.873406 0.0
0.583103 -0.91783 0.0
0.596333 -1.90185 0.0
1.05233 -1.94537 0.0
1.15271 -1.86446 0.0
1.22444 -0.961774 0.0
1.78102 -0.832654 0.0
1.8311 -0.809293 0.0
1.82931 0.186228 0.0
1.37071 0.247277 0.0
1.26588 0.168301 0.0
1.21619 -0.765786 0.0
1.28869 -0.854154 0.0
2.42316 2.55 0.0
2.35223 2.7729 0.0
1.33544 2.72376 0.0
1.29731 2.2605 0.0
1.39121 2.18462 0.0
1.91838 2.19372 0.0
2.30817 2.19774 0.0
-0.575079 0.987303 0.0
-0.635604 1.0065 0.0
-1.19727 0.960435 0.0
-1.24237 0.108591 0.0
-0.822659 0.0168963 0.0
-0.618402 0.0280222 0.0
-1.41092 -1.09501 0.0
-0.913276 -1.07157 0.0
-0.84929 -0.091224 0.0
-1.26901 0.000470664 0.0
-1.411 -0.100868 0.0
-1.48951 -0.990035 0.0
-3.27811 0.828641 0.0
-3.86786 0.813752 0.0
-3.84674 -0.0185959 0.0
-3.35616 -0.0503938 0.0
-3.29988 -0.0371289 0.0
-1.92182 1.01065 0.0
-1.98161 1.02608 0.0
-2.52572 1.00959 0.0
-2.59975 0.880662 0.0
-2.4905 0.136836 0.0
-2.0677 0.0805368 0.0
-1.96794 0.0916279 0.0
0.0945258 2.8237 0.0
0.127649 2.78446 0.0
1.16376 2.88392 0.0
1.17608 3.33662 0.0
0.0773586 3.30225 0.0
-0.837484 -1.20522 0.0
-0.909373 -1.18089 0.0
-1.40702 -1.20434 0.0
-1.45919 -2.00708 0.0
-1.3083 -2.12914 0.0
-0.816422 -2.10053 0.0
1.78116 -0.943626 0.0
1.28883 -0.965127 0.0
1.2171 -1.86781 0.0
1.84915 -1.86558 0.0
-1.20174 1.06313 0.0
-0.640068 1.1092 0.0
-0.660403 2.01263 0.0
-1.11429 2.03583 0.0
-1.2117 1.95678 0.0
-1.26531 1.14289 0.0
3.21209 0.0935198 0.0
3.27099 0.07013 0.0
3.80256 0.0932716 0.0
3.83769 0.86001 0.0
3.22774 0.905652 0.0
3.8049 0.000600999 0.0
3.27333 -0.0225406 0.0
3.25769 -0.86497 0.0
3.8161 -0.86711 0.0
-2.05648 -2.01587 0.0
-1.52443 -1.99517 0.0
-1.47226 -1.19243 0.0
-1.55084 -1.08745 0.0
-2.06042 -1.07813 0.0
-3.2746 0.921186 0.0
-3.22679 0.945221 0.0
-3.27236 1.76769 0.0
-3.77452 1.76457 0.0
-3.86435 0.906297 0.0
-2.11362 -0.956603 0.0
-2.06176 -0.975781 0.0
-1.55218 -0.985106 0.0
-1.47367 -0.095939 0.0
-1.92308 -0.017832 0.0
-2.02284 -0.028923 0.0
3.13519 -0.982131 0.0
2.59524 -0.979573 0.0
2.51176 -1.74576 0.0
3.07846 -1.80247 0.0
3.15035 -1.79387 0.0
1.2842 1.29325 0.0
0.818829 1.25598 0.0
0.785497 0.351322 0.0
1.21963 0.279495 0.0
1.32446 0.358471 0.0
1.34671 1.20748 0.0
3.20422 1.81463 0.0
2.58303 1.85517 0.0
2.54302 1.25463 0.0
2.62038 1.06618 0.0
3.11489 1.02687 0.0
-2.5252 1.10458 0.0
-1.98109 1.12107 0.0
-1.94862 1.95217 0.0
-2.38885 1.95669 0.0
-2.51107 1.80587 0.0
0.726143 1.36559 0.0
0.811445 1.35529 0.0
1.27682 1.39256 0.0
1.30562 2.11585 0.0
1.21172 2.19173 0.0
0.694457 2.18742 0.0
-3.8749 -0.996393 0.0
-3.3676 -0.999967 0.0
-3.36059 -0.14691 0.0
-3.85118 -0.115112 0.0
3.20442 -1.88181 0.0
3.13252 -1.89041 0.0
3.06098 -2.61202 0.0
3.65092 -2.66274 0.0
3.71872 -1.92428 0.0
1.96706 0.30678 0.0
2.3716 0.311759 0.0
2.55628 0.998387 0.0
2.47893 1.18684 0.0
1.96727 1.19599 0.0
2.34374 2.11899 0.0
1.95395 2.11497 0.0
1.91594 1.29378 0.0
1.96583 1.28714 0.0
2.47748 1.278 0.0
2.51749 1.87854 0.0
-3.79429 -1.904 0.0
-3.317 -1.90281 0.0
-3.31093 -1.10004 0.0
-3.36351 -1.09191 0.0
-3.87081 -1.08833 0.0
</DataArray>
</Points>
<Cells>
<DataArray type="Int32" Name="connectivity" format="ascii">
70 126 149 148 126 127 150 149 127 12 151 150 12 14 152 151 14 70 148 152 92 4 154 153 4 43 155 154 43 85 156 155 85 84 157 156 84 92 153 157 64 102 159 158 102 103 160 159 103 6 161 160 6 8 162 161 8 64 158 162 136 74 164 163 74 64 165 164 64 8 166 165 8 95 167 166 95 131 168 167 131 130 169 168 130 136 163 169 83 10 171 170 10 1 172 171 1 59 173 172 59 141 174 173 141 58 175 174 58 83 170 175 50 124 177 176 124 106 178 177 106 107 179 178 107 14 180 179 14 12 181 180 12 50 176 181 147 62 183 182 62 70 184 183 70 14 185 184 14 107 186 185 107 139 187 186 139 138 188 187 138 147 182 188 11 118 190 189 118 119 191 190 119 133 192 191 133 53 193 192 53 17 194 193 17 11 189 194 96 94 196 195 94 56 197 196 56 66 198 197 66 18 199 198 18 97 200 199 97 96 195 200 79 90 202 201 90 91 203 202 91 47 204 203 47 36 205 204 36 122 206 205 122 20 207 206 20 79 201 207 24 110 209 208 110 88 210 209 88 89 211 210 89 86 212 211 86 44 213 212 44 117 214 213 117 22 215 214 22 24 208 215 110 24 217 216 24 137 218 217 137 49 219 218 49 101 220 219 101 111 221 220 111 110 216 221 121 128 223 222 128 129 224 223 129 27 225 224 27 54 226 225 54 121 222 226 23 72 228 227 72 73 229 228 73 29 230 229 29 125 231 230 125 28 232 231 28 23 227 232 30 76 234 233 76 77 235 234 77 25 236 235 25 31 237 236 31 132 238 237 132 30 233 238 78 0 240 239 0 15 241 240 15 90 242 241 90 79 243 242 79 78 239 243 98 114 245 244 114 115 246 245 115 19 247 246 19 26 248 247 26 55 249 248 55 60 250 249 60 98 244 250 66 112 252 251 112 113 253 252 113 21 254 253 21 18 255 254 18 66 251 255 134 108 257 256 108 68 258 257 68 38 259 258 38 135 260 259 135 134 256 260 99 142 262 261 142 143 263 262 143 145 264 263 145 80 265 264 80 40 266 265 40 99 261 266 42 82 268 267 82 83 269 268 83 58 270 269 58 19 271 270 19 115 272 271 115 34 273 272 34 42 267 273 44 86 275 274 86 87 276 275 87 72 277 276 72 23 278 277 23 135 279 278 135 38 280 279 38 44 274 280 4 92 282 281 92 93 283 282 93 46 284 283 46 4 281 284 100 16 286 285 16 48 287 286 48 111 288 287 111 101 289 288 101 100 285 289 124 50 291 290 50 69 292 291 69 28 293 292 28 125 294 293 125 124 290 294 30 132 296 295 132 133 297 296 133 119 298 297 119 52 299 298 52 30 295 299 120 118 301 300 118 11 302 301 11 60 303 302 60 55 304 303 55 128 305 304 128 121 306 305 121 120 300 306 56 94 308 307 94 95 309 308 95 8 310 309 8 6 311 310 6 56 307 311 140 26 313 312 26 19 314 313 19 58 315 314 58 141 316 315 141 140 312 316 98 60 318 317 60 11 319 318 11 17 320 319 17 142 321 320 142 99 322 321 99 98 317 322 146 32 324 323 32 62 325 324 62 147 326 325 147 146 323 326 116 102 328 327 102 64 329 328 64 74 330 329 74 22 331 330 22 117 332 331 117 116 327 332 112 66 334 333 66 56 335 334 56 6 336 335 6 103 337 336 103 105 338 337 105 104 339 338 104 112 333 339 68 108 341 340 108 109 342 341 109 37 343 342 37 39 344 343 39 65 345 344 65 68 340 345 20 122 347 346 122 123 348 347 123 126 349 348 126 70 350 349 70 62 351 350 62 32 352 351 32 20 346 352 72 87 354 353 87 13 355 354 13 2 356 355 2 73 357 356 73 72 353 357 74 136 359 358 136 137 360 359 137 24 361 360 24 22 362 361 22 74 358 362 76 3 364 363 3 16 365 364 16 100 366 365 100 77 367 366 77 76 363 367 33 78 369 368 78 79 370 369 79 20 371 370 20 32 372 371 32 146 373 372 146 33 368 373 144 41 375 374 41 75 376 375 75 80 377 376 80 145 378 377 145 144 374 378 82 85 380 379 85 43 381 380 43 10 382 381 10 83 383 382 83 82 379 383 21 84 385 384 84 85 386 385 85 82 387 386 82 42 388 387 42 97 389 388 97 18 390 389 18 21 384 390 86 89 392 391 89 45 393 392 45 13 394 393 13 87 395 394 87 86 391 395 88 5 397 396 5 45 398 397 45 89 399 398 89 88 396 399 90 15 401 400 15 46 402 401 46 93 403 402 93 91 404 403 91 90 400 404 92 84 406 405 84 21 407 406 21 113 408 407 113 47 409 408 47 91 410 409 91 93 411 410 93 92 405 411 94 96 413 412 96 57 414 413 57 35 415 414 35 131 416 415 131 95 417 416 95 94 412 417 57 96 419 418 96 97 420 419 97 42 421 420 42 34 422 421 34 61 423 422 61 57 418 423 114 98 425 424 98 99 426 425 99 40 427 426 40 35 428 427 35 57 429 428 57 61 430 429 61 114 424 430 77 100 432 431 100 101 433 432 101 49 434 433 49 41 435 434 41 144 436 435 144 25 437 436 25 77 431 437 102 116 439 438 116 65 440 439 65 39 441 440 39 105 442 441 105 103 443 442 103 102 438 443 67 104 445 444 104 105 446 445 105 39 447 446 39 37 448 447 37 71 449 448 71 67 444 449 106 51 451 450 51 7 452 451 7 139 453 452 139 107 454 453 107 106 450 454 108 134 456 455 134 69 457 456 69 50 458 457 50 12 459 458 12 127 460 459 127 109 461 460 109 108 455 461 88 110 463 462 110 111 464 463 111 48 465 464 48 5 466 465 5 88 462 466 112 104 468 467 104 67 469 468 67 36 470 469 36 47 471 470 47 113 472 471 113 112 467 472 114 61 474 473 61 34 475 474 34 115 476 475 115 114 473 476 65 116 478 477 116 117 479 478 117 44 480 479 44 38 481 480 38 68 482 481 68 65 477 482 118 120 484 483 120 9 485 484 9 52 486 485 52 119 487 486 119 118 483 487 9 120 489 488 120 121 490 489 121 54 491 490 54 9 488 491 122 36 493 492 36 67 494 493 67 71 495 494 71 123 496 495 123 122 492 496 106 124 498 497 124 125 499 498 125 29 500 499 29 51 501 500 51 106 497 501 126 123 503 502 123 71 504 503 71 37 505 504 37 109 506 505 109 127 507 506 127 126 502 507 128 55 509 508 55 26 510 509 26 140 511 510 140 129 512 511 129 128 508 512 75 130 514 513 130 131 515 514 131 35 516 515 35 40 517 516 40 80 518 517 80 75 513 518 132 31 520 519 31 81 521 520 81 53 522 521 53 133 523 522 133 132 519 523 69 134 525 524 134 135 526 525 135 23 527 526 23 28 528 527 28 69 524 528 136 130 530 529 130 75 531 530 75 41 532 531 41 49 533 532 49 137 534 533 137 136 529 534 63 138 536 535 138 139 537 536 139 7 538 537 7 63 535 538 129 140 540 539 140 141 541 540 141 59 542 541 59 27 543 542 27 129 539 543 142 17 545 544 17 53 546 545 53 81 547 546 81 143 548 547 143 142 544 548 25 144 550 549 144 145 551 550 145 143 552 551 143 81 553 552 81 31 554 553 31 25 549 554 33 146 556 555 146 147 557 556 147 138 558 557 138 63 559 558 63 33 555 559 
</DataArray>
<DataArray type="Int32" Name="offsets" format="ascii">
4 8 12 16 20 24 28 32 36 40 44 48 52 56 60 64 68 72 76 80 84 88 92 96 100 104 108 112 116 120 124 128 132 136 140 144 148 152 156 160 164 168 172 176 180 184 188 192 196 200 204 208 212 216 220 224 228 232 236 240 244 248 252 256 260 264 268 272 276 280 284 288 292 296 300 304 308 312 316 320 324 328 332 336 340 344 348 352 356 360 364 368 372 376 380 384 388 392 396 400 404 408 412 416 420 424 428 432 436 440 444 448 452 456 460 464 468 472 476 480 484 488 492 496 500 504 508 512 516 520 524 528 532 536 540 544 548 552 556 560 564 568 572 576 580 584 588 592 596 600 604 608 612 616 620 624 628 632 636 640 644 648 652 656 660 664 668 672 676 680 684 688 692 696 700 704 708 712 716 720 724 728 732 736 740 744 748 752 756 760 764 768 772 776 780 784 788 792 796 800 804 808 812 816 820 824 828 832 836 840 844 848 852 856 860 864 868 872 876 880 884 888 892 896 900 904 908 912 916 920 924 928 932 936 940 944 948 952 956 960 964 968 972 976 980 984 988 992 996 1000 1004 1008 1012 1016 1020 1024 1028 1032 1036 1040 1044 1048 1052 1056 1060 1064 1068 1072 1076 1080 1084 1088 1092 1096 1100 1104 1108 1112 1116 1120 1124 1128 1132 1136 1140 1144 1148 1152 1156 1160 1164 1168 1172 1176 1180 1184 1188 1192 1196 1200 1204 1208 1212 1216 1220 1224 1228 1232 1236 1240 1244 1248 1252 1256 1260 1264 1268 1272 1276 1280 1284 1288 1292 1296 1300 1304 1308 1312 1316 1320 1324 1328 1332 1336 1340 1344 1348 1352 1356 1360 1364 1368 1372 1376 1380 1384 1388 1392 1396 1400 1404 1408 1412 1416 1420 1424 1428 1432 1436 1440 1444 1448 1452 1456 1460 1464 1468 1472 1476 1480 1484 1488 1492 1496 1500 1504 1508 1512 1516 1520 1524 1528 1532 1536 1540 1544 1548 1552 1556 1560 1564 1568 1572 1576 1580 1584 1588 1592 1596 1600 1604 1608 1612 1616 1620 1624 1628 1632 1636 1640 1644 1648 
</DataArray>
<DataArray type="UInt8" Name="types" format="ascii">
7 7 7 7 7 7 7 7 7 7 7 7 7 7 7 7 7 7 7 7 7 7 7 7 7 7 7 7 7 7 7 7 7 7 7 7 7 7 7 7 7 7 7 7 7 7 7 7 7 7 7 7 7 7 7 7 7 7 7 7 7 7 7 7 7 7 7 7 7 7 7 7 7 7 7 7 7 7 7 7 7 7 7 7 7 7 7 7 7 7 7 7 7 7 7 7 7 7 7 7 7 7 7 7 7 7 7 7 7 7 7 7 7 7 7 7 7 7 7 7 7 7 7 7 7 7 7 7 7 7 7 7 7 7 7 7 7 7 7 7 7 7 7 7 7 7 7 7 7 7 7 7 7 7 7 7 7 7 7 7 7 7 7 7 7 7 7 7 7 7 7 7 7 7 7 7 7 7 7 7 7 7 7 7 7 7 7 7 7 7 7 7 7 7 7 7 7 7 7 7 7 7 7 7 7 7 7 7 7 7 7 7 7 7 7 7 7 7 7 7 7 7 7 7 7 7 7 7 7 7 7 7 7 7 7 7 7 7 7 7 7 7 7 7 7 7 7 7 7 7 7 7 7 7 7 7 7 7 7 7 7 7 7 7 7 7 7 7 7 7 7 7 7 7 7 7 7 7 7 7 7 7 7 7 7 7 7 7 7 7 7 7 7 7 7 7 7 7 7 7 7 7 7 7 7 7 7 7 7 7 7 7 7 7 7 7 7 7 7 7 7 7 7 7 7 7 7 7 7 7 7 7 7 7 7 7 7 7 7 7 7 7 7 7 7 7 7 7 7 7 7 7 7 7 7 7 7 7 7 7 7 7 7 7 7 7 7 7 7 7 7 7 7 7 7 7 7 7 7 7 7 7 7 7 7 7 7 7 7 7 7 7 7 7 7 7 7 7 7 7 7 7 7 7 7 7 7 7 7 7 7 7 
</DataArray>
</Cells>
<CellData Scalars="wall variable 0">
<DataArray type="Float64" Name="wall length" format="ascii">
0.444954 0.949541 0.369358 0.234344 0.629709 0.483494 0.893879 0.620603 0.983357 0.0566365 0.473004 0.95287 0.22811 0.542903 0.547023 0.46093 0.144841 0.547023 0.240381 0.161975 0.934513 0.0779172 0.549452 1.17898 0.433495 0.598115 0.546336 0.176752 0.459323 0.0504668 0.875575 0.461422 0.234344 0.635681 0.465854 0.0707324 0.629709 0.461422 0.0541356 0.893882 0.0516282 0.513015 0.822769 0.0510036 0.462487 0.603735 0.214345 0.0564852 0.460011 0.192917 0.682773 0.457709 0.978035 0.183567 0.964024 0.446511 0.157857 0.456359 0.315405 0.413289 0.420252 0.0462202 1.01831 0.0666817 0.458739 0.381239 0.457165 0.171638 0.420252 0.392259 0.439876 0.425583 0.104045 1.03237 0.0549514 0.839986 0.509153 0.767063 0.561708 0.419504 1.11289 0.679245 0.490964 0.586164 0.159898 0.666207 1.10023 0.328847 0.248583 0.579899 0.477583 0.415918 1.07195 0.492506 0.183567 1.08799 0.0486561 0.934985 0.343046 0.165313 0.660383 0.0750401 0.529748 0.476096 0.906381 0.414543 0.200083 0.682773 0.0558582 0.475067 0.711152 0.524748 0.869093 0.0590422 0.942663 0.0466969 0.42053 0.736686 0.390792 0.517665 0.988921 0.176752 0.503275 0.343046 0.545497 0.102748 0.458739 1.01975 0.190867 0.419504 0.382999 0.524748 0.100491 0.483494 0.990788 0.515108 0.942491 0.440756 0.850029 0.455451 0.104045 1.02181 0.459323 0.121851 0.603156 0.586164 0.849407 0.477583 0.827546 0.0510036 0.618358 0.721914 0.0588415 0.513015 0.662243 0.0750401 0.499219 0.0549514 0.854746 0.460011 1.0041 0.240381 0.542903 0.618551 0.526633 0.165313 0.503275 0.546336 0.769555 0.529748 0.662243 0.214345 0.3461 0.0590422 0.987189 0.554443 0.686511 0.465854 0.866981 0.0561533 0.473004 0.144841 0.641668 0.457165 0.916553 0.476096 0.192917 0.618551 0.22811 0.171823 0.978849 0.0672732 0.475067 0.92783 0.389035 0.138907 0.73033 0.0842558 0.315405 0.962805 0.0497331 0.444954 0.0707324 0.686511 0.164896 0.190867 0.501067 1.10426 0.429127 1.11289 0.46093 0.863329 0.392259 0.171638 0.641668 0.477639 0.988554 0.440756 0.216659 1.10023 0.646061 1.08799 0.413289 0.164896 0.554443 0.465784 0.452779 0.634953 0.0885528 0.42053 0.88271 0.0764352 0.620603 0.784905 0.549452 0.988921 0.520296 0.983357 0.0764352 0.517665 0.383862 0.457709 0.200083 0.0666817 0.564945 0.810864 0.501067 1.01975 0.469608 0.91526 0.564945 1.01831 0.492506 0.774605 0.515108 0.131158 0.964024 0.0566365 0.520296 0.414543 0.418071 0.446511 0.131158 0.990788 0.0564852 0.506073 0.799326 0.370804 0.161975 1.0041 0.506073 0.978035 0.383862 0.102748 0.785412 0.0935832 0.0486561 0.987189 0.390792 0.103964 0.799326 0.0935832 0.437832 0.216659 1.02181 0.425583 0.0980441 0.452779 0.33663 0.328847 0.0561533 0.504099 0.73033 0.361489 0.171823 0.95287 0.446027 0.978849 0.361489 0.138907 0.771325 0.108131 0.594824 0.714905 0.482333 0.0541356 0.875575 0.0558582 0.500817 0.121851 0.635681 0.369358 0.0857909 0.92783 0.0462202 1.03237 0.455451 0.945843 0.469608 0.0672732 0.446027 0.700841 0.157857 0.418071 0.906381 0.437832 0.785412 0.545497 0.934985 0.504099 0.916553 0.381239 0.100491 0.711152 0.0842558 0.0588415 0.520313 0.658548 0.618358 0.822769 0.520313 0.854746 0.561708 0.747801 0.456359 0.700841 0.108131 0.459352 0.962805 0.0504668 0.849407 0.490964 0.751365 0.594824 0.0497331 0.459352 0.771325 0.389035 0.0857909 0.949541 0.499219 0.660383 0.526633 0.0686825 0.839986 0.42479 0.934513 0.370804 0.103964 0.736686 0.0885528 0.579899 0.520932 0.170439 0.462487 0.827546 0.500817 0.869093 0.382999 0.159898 0.603156 0.0779172 0.42479 0.634953 0.0980441 0.439876 0.863329 0.512298 0.893882 0.482333 0.760716 0.0686825 0.769555 0.598115 0.666094 0.509153 0.3461 0.603735 0.170439 0.479995 0.942663 0.33663 0.88271 0.0466969 0.479995 0.520932 0.248583 0.465784 0.866981 0.0516282 0.512298 0.716029 
</DataArray>
<DataArray type="Float64" Name="wall variable 0" format="ascii">
0 0 0 0 0 0 0 0 0 0 0 0 0 0 0 0 0 0 0 0 0 0 0 0 0 0 0 0 0 0 0 0 0 0 0 0 0 0 0 0 0 0 0 0 0 0 0 0 0 0 0 0 0 0 0 0 0 0 0 0 0 0 0 0 0 0 0 0 0 0 0 0 0 0 0 0 0 0 0 0 0 0 0 0 0 0 0 0 0 0 0 0 0 0 0 0 0 0 0 0 0 0 0 0 0 0 0 0 0 0 0 0 0 0 0 0 0 0 0 0 0 0 0 0 0 0 0 0 0 0 0 0 0 0 0 0 0 0 0 0 0 0 0 0 0 0 0 0 0 0 0 0 0 0 0 0 0 0 0 0 0 0 0 0 0 0 0 0 0 0 0 0 0 0 0 0 0 0 0 0 0 0 0 0 0 0 0 0 0 0 0 0 0 0 0 0 0 0 0 0 0 0 0 0 0 0 0 0 0 0 0 0 0 0 0 0 0 0 0 0 0 0 0 0 0 0 0 0 0 0 0 0 0 0 0 0 0 0 0 0 0 0 0 0 0 0 0 0 0 0 0 0 0 0 0 0 0 0 0 0 0 0 0 0 0 0 0 0 0 0 0 0 0 0 0 0 0 0 0 0 0 0 0 0 0 0 0 0 0 0 0 0 0 0 0 0 0 0 0 0 0 0 0 0 0 0 0 0 0 0 0 0 0 0 0 0 0 0 0 0 0 0 0 0 0 0 0 0 0 0 0 0 0 0 0 0 0 0 0 0 0 0 0 0 0 0 0 0 0 0 0 0 0 0 0 0 0 0 0 0 0 0 0 0 0 0 0 0 0 0 0 0 0 0 0 0 0 0 0 0 0 0 0 0 0 0 0 0 0 0 0 0 0 0 0 0 0 0 0 0 0 0 0 0 0 0 0 0 0 0 0 0 
</DataArray>
<DataArray type="Float64" Name="wall variable 1" format="ascii">
0 0 0 0 0 0 0 0 0 0 0 0 0 0 0 0 0 0 0 0 0 0 0 0 0 0 0 0 0 0 0 0 0 0 0 0 0 0 0 0 0 0 0 0 0 0 0 0 0 0 0 0 0 0 0 0 0 0 0 0 0 0 0 0 0 0 0 0 0 0 0 0 0 0 0 0 0 0 0 0 0 0 0 0 0 0 0 0 0 0 0 0 0 0 0 0 0 0 0 0 0 0 0 0 0 0 0 0 0 0 0 0 0 0 0 0 0 0 0 0 0 0 0 0 0 0 0 0 0 0 0 0 0 0 0 0 0 0 0 0 0 0 0 0 0 0 0 0 0 0 0 0 0 0 0 0 0 0 0 0 0 0 0 0 0 0 0 0 0 0 0 0 0 0 0 0 0 0 0 0 0 0 0 0 0 0 0 0 0 0 0 0 0 0 0 0 0 0 0 0 0 0 0 0 0 0 0 0 0 0 0 0 0 0 0 0 0 0 0 0 0 0 0 0 0 0 0 0 0 0 0 0 0 0 0 0 0 0 0 0 0 0 0 0 0 0 0 0 0 0 0 0 0 0 0 0 0 0 0 0 0 0 0 0 0 0 0 0 0 0 0 0 0 0 0 0 0 0 0 0 0 0 0 0 0 0 0 0 0 0 0 0 0 0 0 0 0 0 0 0 0 0 0 0 0 0 0 0 0 0 0 0 0 0 0 0 0 0 0 0 0 0 0 0 0 0 0 0 0 0 0 0 0 0 0 0 0 0 0 0 0 0 0 0 0 0 0 0 0 0 0 0 0 0 0 0 0 0 0 0 0 0 0 0 0 0 0 0 0 0 0 0 0 0 0 0 0 0 0 0 0 0 0 0 0 0 0 0 0 0 0 0 0 0 0 0 0 0 0 0 0 0 0 0 0 0 0 0 0 0 0 0 
</DataArray>
</CellData>
</Piece>
</UnstructuredGrid>
</VTKFile>
