<VTKFile type="UnstructuredGrid" version="0.1">
<UnstructuredGrid>
<Piece  NumberOfPoints="      56" NumberOfCells="      38">
<Points>
<DataArray type="Float64" NumberOfComponents="3" format="ascii">
-1.05674 -1.04025 0 
1.06098 -1.03203 0 
-1.05047 1.01667 0 
1.0591 1.02578 0 
0.00332167 -1.04193 0 
0.00359253 1.0163 0 
-0.0441838 0.000819386 0 
-1.11926 -0.0122223 0 
0.0515953 0.0804353 0 
1.1291 0.0076379 0 
0.532343 -1.09173 0 
0.574189 0.0116253 0 
-0.554854 0.010341 0 
-0.549592 1.06161 0 
-0.610489 -0.0118905 0 
-0.559715 -1.07888 0 
0.605273 1.0471 0 
0.52582 0.0306092 0 
-0.529853 -0.0434368 0.0
-0.579925 -0.0634452 0.0
-0.534229 -1.02374 0.0
-0.0274952 -0.990477 0.0
-0.0702501 -0.0520063 0.0
0.0296875 -0.98704 0.0
0.505807 -1.03186 0.0
0.543468 -0.0388442 0.0
0.499936 -0.0217587 0.0
0.0731338 0.0230848 0.0
-0.0130675 -0.0485695 0.0
-0.525841 0.0609637 0.0
-0.0662386 0.0523943 0.0
0.0199626 0.124049 0.0
-0.0232399 0.966325 0.0
-0.521106 1.00711 0.0
0.574814 0.99865 0.0
0.0333015 0.970929 0.0
0.076504 0.128653 0.0
0.503306 0.0838098 0.0
0.561274 -1.03469 0.0
1.03705 -0.980964 0.0
1.09835 -0.0452642 0.0
0.598936 -0.0416756 0.0
-0.631162 0.0396478 0.0
-0.58109 0.0596562 0.0
-0.576355 1.0058 0.0
-1.02715 0.965356 0.0
-1.08906 0.0393492 0.0
-0.632951 -0.0640477 0.0
-1.09084 -0.0643463 0.0
-1.03458 -0.989573 0.0
-0.587254 -1.02434 0.0
1.03606 0.973116 0.0
0.627614 0.992307 0.0
0.556107 0.0774664 0.0
0.599639 0.0603809 0.0
1.09906 0.0567922 0.0
</DataArray>
</Points>
<Cells>
<DataArray type="Int32" Name="connectivity" format="ascii">
12 14 19 18 14 15 20 19 15 4 21 20 4 6 22 21 6 12 18 22 4 10 24 23 10 11 25 24 11 17 26 25 17 8 27 26 8 6 28 27 6 4 23 28 12 6 30 29 6 8 31 30 8 5 32 31 5 13 33 32 13 12 29 33 16 5 35 34 5 8 36 35 8 17 37 36 17 16 34 37 10 1 39 38 1 9 40 39 9 11 41 40 11 10 38 41 14 12 43 42 12 13 44 43 13 2 45 44 2 7 46 45 7 14 42 46 14 7 48 47 7 0 49 48 0 15 50 49 15 14 47 50 3 16 52 51 16 17 53 52 17 11 54 53 11 9 55 54 9 3 51 55 
</DataArray>
<DataArray type="Int32" Name="offsets" format="ascii">
4 8 12 16 20 24 28 32 36 40 44 48 52 56 60 64 68 72 76 80 84 88 92 96 100 104 108 112 116 120 124 128 132 136 140 144 148 152 
</DataArray>
<DataArray type="UInt8" Name="types" format="ascii">
7 7 7 7 7 7 7 7 7 7 7 7 7 7 7 7 7 7 7 7 7 7 7 7 7 7 7 7 7 7 7 7 7 7 7 7 7 7 
</DataArray>
</Cells>
<CellData Scalars="wall variable 0">
<DataArray type="Float64" Name="wall length" format="ascii">
0.0521875 1.00084 0.484631 0.92031 0.437738 0.455044 1.02525 0.0452984 0.408965 0.103456 0.92031 0.437738 0.103456 0.827154 0.478091 0.980992 0.521412 0.827154 0.408965 0.976992 0.475384 0.922602 0.50469 1.02525 0.0521875 0.980992 0.450726 0.915105 0.464059 0.464059 0.914103 0.446514 1.00084 0.407426 0.976992 0.0452984 0.50469 0.907371 
</DataArray>
<DataArray type="Float64" Name="wall variable 0" format="ascii">
0 0 0 0 0 0 0 0 0 0 0 0 0 0 0 0 0 0 0 0 0 0 0 0 0 0 0 0 0 0 0 0 0 0 0 0 0 0 
</DataArray>
<DataArray type="Float64" Name="wall variable 1" format="ascii">
0 0 0 0 0 0 0 0 0 0 0 0 0 0 0 0 0 0 0 0 0 0 0 0 0 0 0 0 0 0 0 0 0 0 0 0 0 0 
</DataArray>
</CellData>
</Piece>
</UnstructuredGrid>
</VTKFile>
