<VTKFile type="UnstructuredGrid" version="0.1">
<UnstructuredGrid>
<Piece  NumberOfPoints="      23" NumberOfCells="       5">
<Points>
<DataArray type="Float64" NumberOfComponents="3" format="ascii">
-0.135592 -0.832266 0.0
-0.166149 0.0260022 0.0
-1.05497 0.0154735 0.0
-1.00474 -0.837698 0.0
-0.0615648 -0.828018 0.0
0.361719 -0.833602 0.0
0.394595 0.0703547 0.0
-0.025138 0.100621 0.0
-0.0921213 0.0302501 0.0
-0.164082 0.119852 0.0
-0.097099 0.190223 0.0
-0.125007 0.961813 0.0
-0.994614 0.962703 0.0
-1.05291 0.109324 0.0
-0.0244424 0.964883 0.0
0.0034657 0.193293 0.0
0.423199 0.163027 0.0
0.895066 0.12881 0.0
0.84413 0.974518 0.0
0.412372 -0.835878 0.0
0.858836 -0.827075 0.0
0.917115 0.033861 0.0
0.445248 0.0680786 0.0
</DataArray>
</Points>
<Cells>
<DataArray type="Int32" Name="connectivity" format="ascii">
0 1 2 3 
4 5 6 7 8 
9 10 11 12 13 
14 15 16 17 18 
19 20 21 22 
</DataArray>
<DataArray type="Int32" Name="offsets" format="ascii">
4 9 14 19 23 
</DataArray>
<DataArray type="UInt8" Name="types" format="ascii">
7 7 7 7 7 
</DataArray>
</Cells>
<CellData Scalars="cell variable 4" Vectors="cell vector">
<DataArray type="Float64" NumberOfComponents="3" Name="cell vector" format="ascii">
0 1 1
0 1 1
0 1 1
0 1 1
0 1 1
</DataArray>
<DataArray type="Float64" Name="cell vector length" format="ascii">
0.250128 0.131868 0.249872 0.237867 0.130265 
</DataArray>
<DataArray type="Float64" Name="cell variable 4" format="ascii">
0 0 0 0 0 
</DataArray>
<DataArray type="Float64" Name="cell variable 5" format="ascii">
0 0 0 0 0 
</DataArray>
<DataArray type="Float64" Name="cell variable 6" format="ascii">
0 0 0 0 0 
</DataArray>
<DataArray type="Float64" Name="cell variable 7" format="ascii">
0 0 0 0 0 
</DataArray>
<DataArray type="Float64" Name="cell variable 8" format="ascii">
0 0 0 0 0 
</DataArray>
</CellData>
</Piece>
</UnstructuredGrid>
</VTKFile>
