<VTKFile type="UnstructuredGrid" version="0.1">
<UnstructuredGrid>
<Piece  NumberOfPoints="      28" NumberOfCells="      18">
<Points>
<DataArray type="Float64" NumberOfComponents="3" format="ascii">
-0.909981 -0.90565 0 
0.904149 -0.898447 0 
-0.903547 0.880319 0 
0.910172 0.88753 0 
-0.00275273 -0.899998 0 
0.00322776 0.878711 0 
-0.034794 -0.0017029 0 
-0.966574 -0.0129257 0 
0.0328301 0.0709257 0 
0.967269 0.00123857 0 
-0.0502942 -0.855304 0.0
-0.0791314 -0.0468377 0.0
-0.917733 -0.0569382 0.0
-0.8668 -0.86039 0.0
0.0748615 0.021497 0.0
0.0139998 -0.0438687 0.0
0.0428369 -0.852335 0.0
0.859049 -0.850939 0.0
0.915856 -0.0412214 0.0
-0.0773719 0.0414839 0.0
-0.0165102 0.10685 0.0
-0.0431523 0.833857 0.0
-0.859249 0.835304 0.0
-0.915973 0.0313834 0.0
0.0514557 0.836597 0.0
0.0780979 0.10959 0.0
0.919092 0.0468713 0.0
0.867706 0.844533 0.0
</DataArray>
</Points>
<Cells>
<DataArray type="Int32" Name="connectivity" format="ascii">
4 6 11 10 6 7 12 11 7 0 13 12 0 4 10 13 8 6 15 14 6 4 16 15 4 1 17 16 1 9 18 17 9 8 14 18 6 8 20 19 8 5 21 20 5 2 22 21 2 7 23 22 7 6 19 23 5 8 25 24 8 9 26 25 9 3 27 26 3 5 24 27 
</DataArray>
<DataArray type="Int32" Name="offsets" format="ascii">
4 8 12 16 20 24 28 32 36 40 44 48 52 56 60 64 68 72 
</DataArray>
<DataArray type="UInt8" Name="types" format="ascii">
7 7 7 7 7 7 7 7 7 7 7 7 7 7 7 7 7 7 
</DataArray>
</Cells>
<CellData Scalars="wall variable 0">
<DataArray type="Float64" Name="wall length" format="ascii">
0.806624 0.84089 0.803174 0.811124 0.0857873 0.806624 0.809001 0.808009 0.845359 0.0857873 0.725748 0.808942 0.804377 0.84089 0.725748 0.845359 0.799572 0.810971 
</DataArray>
<DataArray type="Float64" Name="wall variable 0" format="ascii">
0 0 0 0 0 0 0 0 0 0 0 0 0 0 0 0 0 0 
</DataArray>
<DataArray type="Float64" Name="wall variable 1" format="ascii">
0 0 0 0 0 0 0 0 0 0 0 0 0 0 0 0 0 0 
</DataArray>
</CellData>
</Piece>
</UnstructuredGrid>
</VTKFile>
