<VTKFile type="UnstructuredGrid" version="0.1">
<UnstructuredGrid>
<Piece  NumberOfPoints="      14" NumberOfCells="       8">
<Points>
<DataArray type="Float64" NumberOfComponents="3" format="ascii">
-0.517074 -0.517074 0 
0.517074 -0.517074 0 
-0.517074 0.517074 0 
0.517074 0.517074 0 
0.00158672 -0.517231 0 
-0.00158672 0.517231 0 
-0.491219 -0.46542 0.0
-0.0244242 -0.465561 0.0
-0.0272803 0.465455 0.0
-0.491219 0.465314 0.0
0.0272803 -0.465455 0.0
0.491219 -0.465314 0.0
0.491219 0.46542 0.0
0.0244242 0.465561 0.0
</DataArray>
</Points>
<Cells>
<DataArray type="Int32" Name="connectivity" format="ascii">
0 4 7 6 4 5 8 7 5 2 9 8 2 0 6 9 4 1 11 10 1 3 12 11 3 5 13 12 5 4 10 13 
</DataArray>
<DataArray type="Int32" Name="offsets" format="ascii">
4 8 12 16 20 24 28 32 
</DataArray>
<DataArray type="UInt8" Name="types" format="ascii">
7 7 7 7 7 7 7 7 
</DataArray>
</Cells>
<CellData Scalars="wall variable 0">
<DataArray type="Float64" Name="wall length" format="ascii">
0.502589 1.00301 0.499514 1.0021 0.499514 1.0021 0.502589 1.00301 
</DataArray>
<DataArray type="Float64" Name="wall variable 0" format="ascii">
0 0 0 0 0 0 0 0 
</DataArray>
<DataArray type="Float64" Name="wall variable 1" format="ascii">
0 0 0 0 0 0 0 0 
</DataArray>
</CellData>
</Piece>
</UnstructuredGrid>
</VTKFile>
