<VTKFile type="UnstructuredGrid" version="0.1">
<UnstructuredGrid>
<Piece  NumberOfPoints="     552" NumberOfCells="     406">
<Points>
<DataArray type="Float64" NumberOfComponents="3" format="ascii">
-3.5102 -3.11061 0 
3.32823 -3.09426 0 
-3.45731 2.99104 0 
3.34168 3.031 0 
-0.138917 -3.31944 0 
-0.026356 3.1991 0 
-0.324269 -0.114899 0 
-3.79024 -0.081766 0 
0.180779 0.360343 0 
3.66262 0.0280917 0 
1.95352 -3.26314 0 
2.40991 0.000520973 0 
-2.4656 0.0648826 0 
-2.17111 3.14809 0 
-2.65036 -0.175078 0 
-2.26609 -3.26719 0 
2.19298 3.16924 0 
2.25295 0.231096 0 
-0.0834379 -1.9258 0 
2.19191 -1.89709 0 
-2.43983 -2.04745 0 
-0.271711 -2.10749 0 
-0.0667089 1.98091 0 
-2.35774 1.90979 0 
0.0980099 2.13331 0 
2.22569 2.06686 0 
2.33364 -1.73786 0 
3.58736 -1.84 0 
-2.48735 1.74921 0 
-3.71922 1.73026 0 
3.61506 1.73373 0 
2.41099 1.81107 0 
-2.57873 -1.88875 0 
-3.7381 -1.90121 0 
1.0912 -1.86683 0 
1.14563 0.195119 0 
-1.48132 -1.99088 0 
-1.42417 -0.0665399 0 
-1.23461 1.90957 0 
-1.2743 0.0411023 0 
1.25617 0.278925 0 
1.24439 2.05346 0 
0.984929 -1.95222 0 
0.981536 -3.33111 0 
-1.13147 1.99298 0 
-1.16962 3.22165 0 
-1.31309 -3.34584 0 
-1.32004 -2.11864 0 
1.1502 3.2382 0 
1.14397 2.13251 0 
-2.58181 0.859495 0 
-3.81695 0.80938 0 
3.70433 0.848706 0 
2.45008 0.964944 0 
3.6777 -0.90166 0 
2.4251 -0.917996 0 
-0.135594 -0.870679 0 
1.0928 -0.803618 0 
2.26239 -2.50369 0 
3.51972 -2.63628 0 
2.37636 -0.834277 0 
1.16794 -0.89853 0 
-2.67313 -1.04441 0 
-3.81964 -1.02583 0 
0.00539009 1.03 0 
-1.22697 0.951505 0 
-0.249073 -1.09246 0 
-1.42729 -1.13094 0 
-1.29238 1.03753 0 
-2.50649 0.99789 0 
-2.63105 -0.96487 0 
-1.50826 -1.01808 0 
-2.43455 2.41241 0 
-3.6498 2.53972 0 
0.0836088 1.19932 0 
1.21589 1.27958 0 
3.55014 2.52663 0 
2.34928 2.44582 0 
-3.69066 -2.67125 0 
-2.51076 -2.54293 0 
1.27962 1.1871 0 
2.3734 1.16754 0 
1.02445 -2.57597 0 
2.14072 -2.67708 0 
-0.15582 -2.72354 0 
0.967569 -2.64794 0 
-1.18659 2.53837 0 
-2.32403 2.61034 0 
-0.00530551 2.67616 0 
-1.1434 2.60404 0 
-2.41616 -2.73809 0 
-1.36108 -2.64727 0 
-0.189577 -2.78208 0 
-1.29202 -2.78362 0 
0.418629 -0.827935 0 
0.476133 0.275204 0 
0.483737 -0.850206 0 
0.497987 -1.9152 0 
1.74938 -0.852292 0 
1.74616 0.22001 0 
2.28213 2.68944 0 
1.18112 2.63123 0 
-0.560002 0.982904 0 
-0.60732 -0.0496893 0 
-0.894639 -1.10747 0 
-0.825306 -0.0510264 0 
-3.17091 0.826389 0 
-3.1907 -0.1079 0 
-1.85641 1.00324 0 
-1.90518 0.0126044 0 
0.0267747 2.63163 0 
1.14045 2.7431 0 
-0.816533 -1.12842 0 
-0.794343 -2.09739 0 
1.69483 -0.874224 0 
1.76846 -1.87214 0 
-0.625618 0.999194 0 
-0.647362 1.977 0 
3.0156 0.0252965 0 
3.03585 0.900886 0 
3.08127 0.00678207 0 
3.06577 -0.90153 0 
-2.05058 -2.01914 0 
-2.05434 -1.00437 0 
-3.11711 0.846747 0 
-3.17047 1.73842 0 
-2.11126 -0.988956 0 
-2.01212 0.00820317 0 
3.00552 -0.917948 0 
3.02237 -1.79422 0 
0.717219 1.24234 0 
0.681426 0.266773 0 
3.08232 1.77197 0 
2.9815 0.919956 0 
-1.92162 1.01311 0 
-1.88528 1.91023 0 
0.625419 1.24448 0 
0.591245 2.13276 0 
-3.25934 -1.03397 0 
-3.25275 -0.114323 0 
2.944 -1.79338 0 
2.86991 -2.57346 0 
1.82019 0.22497 0 
1.82046 1.17818 0 
1.80729 2.06154 0 
1.76645 1.1793 0 
-2.60234 -0.914849 0.0
-2.13453 -0.936527 0.0
-2.0453 -0.0390834 0.0
-2.45343 0.0119281 0.0
-2.61971 -0.204037 0.0
-0.128839 -2.80427 0.0
-0.0832445 -3.28789 0.0
0.925163 -3.29839 0.0
0.912593 -2.68355 0.0
-0.098457 -2.75158 0.0
-0.0211995 0.9759 0.0
-0.530052 0.933513 0.0
-0.572638 0.00417861 0.0
-0.317893 -0.0545097 0.0
0.13665 0.373208 0.0
0.602774 1.19868 0.0
0.115145 1.15805 0.0
0.0447479 1.00566 0.0
0.202598 0.402964 0.0
0.468416 0.326339 0.0
0.65318 0.318751 0.0
0.685393 1.19676 0.0
2.19633 -2.69685 0.0
2.02785 -3.2243 0.0
3.26509 -3.07231 0.0
3.43743 -2.66013 0.0
2.8526 -2.60359 0.0
2.30583 -2.54079 0.0
-2.6086 0.808185 0.0
-3.09037 0.796713 0.0
-3.13879 0.778391 0.0
-3.15661 -0.0624699 0.0
-2.67029 -0.12293 0.0
-2.50402 0.0930346 0.0
-3.22864 -0.989659 0.0
-2.70105 -0.999057 0.0
-2.66318 -0.927467 0.0
-2.68055 -0.216655 0.0
-3.16687 -0.156195 0.0
-3.22271 -0.161975 0.0
2.43681 0.0469212 0.0
2.98193 0.0692192 0.0
3.00016 0.857249 0.0
2.95124 0.874413 0.0
2.47296 0.914902 0.0
2.29555 0.254439 0.0
0.451317 -0.902281 0.0
0.392719 -0.882237 0.0
-0.106081 -0.920707 0.0
-0.208212 -1.12031 0.0
-0.059141 -1.87032 0.0
0.464141 -1.86078 0.0
-2.45134 -2.52437 0.0
-2.3662 -2.70001 0.0
-1.41663 -2.61828 0.0
-1.37969 -2.14251 0.0
-1.52484 -2.02752 0.0
-2.03718 -2.05296 0.0
-2.38751 -2.07844 0.0
0.0340373 2.15135 0.0
-0.0300744 2.59985 0.0
-0.0589466 2.63992 0.0
-1.08323 2.57501 0.0
-1.1221 2.51591 0.0
-1.07249 2.02505 0.0
-0.636797 2.01068 0.0
-0.11421 2.0142 0.0
0.0871325 2.61007 0.0
0.151244 2.16157 0.0
0.595155 2.16108 0.0
1.09261 2.16086 0.0
1.12604 2.6097 0.0
1.08944 2.71039 0.0
3.09187 -0.94606 0.0
3.03764 -0.960836 0.0
3.05281 -1.74948 0.0
3.5613 -1.79068 0.0
3.6426 -0.946177 0.0
-2.42853 1.92931 0.0
-2.49766 2.38167 0.0
-3.59139 2.49625 0.0
-3.65387 1.76774 0.0
-3.15999 1.77508 0.0
-2.54518 1.78479 0.0
3.55011 1.77332 0.0
3.49168 2.48692 0.0
2.4109 2.4142 0.0
2.29967 2.07313 0.0
2.46644 1.84292 0.0
3.07064 1.80773 0.0
-3.61534 -2.69375 0.0
-3.45293 -3.08917 0.0
-2.33323 -3.2301 0.0
-2.46829 -2.75391 0.0
-2.55343 -2.57827 0.0
1.77961 -0.900451 0.0
1.73052 -0.92019 0.0
1.79679 -1.81832 0.0
2.17789 -1.84077 0.0
2.30545 -1.69746 0.0
2.38776 -0.959585 0.0
2.3439 -0.884238 0.0
-0.272394 -1.14478 0.0
-0.783108 -1.17714 0.0
-0.763137 -2.04921 0.0
-0.292768 -2.05831 0.0
-0.123323 -1.89479 0.0
-1.88802 1.05851 0.0
-1.82933 1.04962 0.0
-1.3217 1.08049 0.0
-1.26971 1.86533 0.0
-1.85531 1.86592 0.0
1.72621 0.269089 0.0
1.79283 0.273553 0.0
1.79308 1.13144 0.0
1.74447 1.13245 0.0
1.30632 1.13947 0.0
1.28522 0.322112 0.0
1.04903 -1.9823 0.0
1.08459 -2.54368 0.0
2.08924 -2.63468 0.0
2.19875 -2.47862 0.0
2.13532 -1.93268 0.0
1.75421 -1.91023 0.0
1.14468 -1.90545 0.0
-1.19719 2.01795 0.0
-1.2468 2.5088 0.0
-2.2705 2.57358 0.0
-2.36996 2.39544 0.0
-2.30084 1.94308 0.0
-1.87563 1.94348 0.0
-1.29002 1.94289 0.0
-0.198771 -3.29356 0.0
-0.244365 -2.80994 0.0
-1.23656 -2.81133 0.0
-1.25552 -3.31732 0.0
2.22108 2.7133 0.0
2.14085 3.14512 0.0
1.20234 3.20719 0.0
1.19356 2.7616 0.0
1.23017 2.66091 0.0
-3.08782 0.89318 0.0
-2.60605 0.904652 0.0
-2.53826 1.02921 0.0
-2.52103 1.70539 0.0
-3.13584 1.69568 0.0
3.58812 1.68965 0.0
3.10866 1.72406 0.0
3.01792 0.957252 0.0
3.06684 0.940088 0.0
3.66847 0.893127 0.0
3.04661 -0.0391904 0.0
2.98751 -0.0225274 0.0
2.44239 -0.0448254 0.0
2.4122 -0.796144 0.0
2.45606 -0.87149 0.0
2.97844 -0.871448 0.0
3.03267 -0.856672 0.0
-0.109925 -0.812015 0.0
0.388875 -0.773545 0.0
0.440629 0.21928 0.0
0.17481 0.295905 0.0
-0.279733 -0.131812 0.0
2.90679 -1.82827 0.0
2.35746 -1.7783 0.0
2.22991 -1.9216 0.0
2.29334 -2.46754 0.0
2.8401 -2.53034 0.0
1.78086 -0.798472 0.0
2.34515 -0.782259 0.0
2.37534 -0.0309406 0.0
2.23408 0.176577 0.0
1.84459 0.171063 0.0
1.77797 0.166599 0.0
-2.64144 -1.84646 0.0
-2.7264 -1.08655 0.0
-3.25398 -1.07715 0.0
-3.75825 -1.06983 0.0
-3.68487 -1.85767 0.0
-0.594237 1.0472 0.0
-0.535182 1.03254 0.0
-0.0263296 1.07493 0.0
0.0440672 1.22732 0.0
-0.0912187 1.93075 0.0
-0.613806 1.92723 0.0
-0.789411 -1.07757 0.0
-0.278696 -1.04521 0.0
-0.176565 -0.845608 0.0
-0.346373 -0.165405 0.0
-0.601118 -0.106717 0.0
-0.797306 -0.10792 0.0
-0.859706 -1.05872 0.0
-1.31955 0.983486 0.0
-1.82718 0.952624 0.0
-1.87107 0.0610535 0.0
-1.43816 -0.0101764 0.0
-1.30328 0.0867016 0.0
-1.26068 0.906064 0.0
-2.42952 -1.991 0.0
-2.0792 -1.96552 0.0
-2.08257 -1.05223 0.0
-2.13381 -1.03835 0.0
-2.60162 -1.01668 0.0
-2.63949 -1.08827 0.0
-2.55453 -1.84817 0.0
-2.47787 2.44826 0.0
-2.3784 2.6264 0.0
-2.24077 3.11037 0.0
-3.39835 2.96903 0.0
-3.5716 2.56284 0.0
0.105724 1.24781 0.0
0.593353 1.28844 0.0
0.562596 2.0879 0.0
0.118685 2.08839 0.0
-0.0295622 1.95124 0.0
3.47719 2.55284 0.0
3.28958 3.00677 0.0
2.25575 3.13119 0.0
2.33598 2.69937 0.0
2.39641 2.48011 0.0
-3.67589 -1.93601 0.0
-3.6332 -2.62904 0.0
-2.57129 -2.51356 0.0
-2.50746 -2.06763 0.0
-2.63247 -1.9248 0.0
1.7776 2.01781 0.0
1.27098 2.01053 0.0
1.24534 1.31404 0.0
1.30269 1.23081 0.0
1.74084 1.22379 0.0
1.07109 -2.61332 0.0
1.0199 -2.6781 0.0
1.03247 -3.29294 0.0
1.90725 -3.23177 0.0
2.07574 -2.70432 0.0
-0.206057 -2.12741 0.0
-0.101755 -2.68186 0.0
0.909295 -2.61382 0.0
0.960485 -2.54905 0.0
0.924919 -1.98767 0.0
0.486671 -1.95435 0.0
-0.036611 -1.9639 0.0
-1.23607 2.57157 0.0
-1.1972 2.63067 0.0
-1.22079 3.18653 0.0
-2.12214 3.12032 0.0
-2.25977 2.63635 0.0
-0.0649707 2.70104 0.0
-0.0839161 3.17169 0.0
-1.11285 3.19198 0.0
-1.08926 2.63613 0.0
-2.35464 -2.76335 0.0
-2.21958 -3.23954 0.0
-1.36188 -3.31032 0.0
-1.34292 -2.80433 0.0
-1.40507 -2.68161 0.0
-0.247852 -2.74891 0.0
-0.217471 -2.69622 0.0
-0.321773 -2.14178 0.0
-0.792142 -2.13269 0.0
-1.26527 -2.15182 0.0
-1.3022 -2.62759 0.0
-1.24005 -2.7503 0.0
0.454403 -0.774356 0.0
0.513001 -0.7944 0.0
1.06116 -0.752471 0.0
1.1087 0.146392 0.0
0.69092 0.210881 0.0
0.506157 0.218469 0.0
1.06472 -0.859766 0.0
0.516564 -0.901695 0.0
0.529389 -1.86019 0.0
0.967637 -1.89351 0.0
1.06328 -1.81665 0.0
1.13235 -0.945187 0.0
1.66852 -0.819385 0.0
1.71761 -0.799646 0.0
1.71472 0.165426 0.0
1.27373 0.218449 0.0
1.17424 0.143024 0.0
1.12669 -0.755839 0.0
1.19432 -0.84126 0.0
2.28836 2.43764 0.0
2.22793 2.6569 0.0
1.23701 2.60451 0.0
1.20358 2.15566 0.0
1.29396 2.08451 0.0
1.80057 2.09179 0.0
2.17713 2.09658 0.0
-0.594907 0.932362 0.0
-0.653962 0.947023 0.0
-1.19518 0.904103 0.0
-1.23777 0.0847403 0.0
-0.833681 0.00182444 0.0
-0.637493 0.00302786 0.0
-1.401 -1.07418 0.0
-0.92161 -1.05306 0.0
-0.85921 -0.102261 0.0
-1.2633 -0.019345 0.0
-1.39819 -0.116223 0.0
-1.47386 -0.972612 0.0
-3.20276 0.780247 0.0
-3.78419 0.764938 0.0
-3.76015 -0.0370931 0.0
-3.27641 -0.0663945 0.0
-3.22057 -0.0606139 0.0
-1.89075 0.956645 0.0
-1.94944 0.965529 0.0
-2.47583 0.951832 0.0
-2.54361 0.827276 0.0
-2.43902 0.112125 0.0
-2.03089 0.0611139 0.0
-1.93464 0.065075 0.0
0.0504034 2.70384 0.0
0.0792756 2.66376 0.0
1.08158 2.76408 0.0
1.09036 3.20967 0.0
0.031458 3.17448 0.0
-0.84761 -1.17737 0.0
-0.917906 -1.15851 0.0
-1.3973 -1.17964 0.0
-1.44591 -1.95359 0.0
-1.30076 -2.06857 0.0
-0.827639 -2.04944 0.0
1.66857 -0.926639 0.0
1.19437 -0.948515 0.0
1.1253 -1.81998 0.0
1.73484 -1.82477 0.0
-1.19934 1.00301 0.0
-0.658124 1.04593 0.0
-0.677693 1.92596 0.0
-1.11339 1.94033 0.0
-1.20622 1.86527 0.0
-1.25821 1.08043 0.0
3.04905 0.0676396 0.0
3.10816 0.0509766 0.0
3.63137 0.0701553 0.0
3.66892 0.808709 0.0
3.06728 0.85567 0.0
3.63366 -0.0193158 0.0
3.11045 -0.0384945 0.0
3.0965 -0.855976 0.0
3.64723 -0.856092 0.0
-2.02114 -1.96755 0.0
-1.5088 -1.94212 0.0
-1.46018 -1.16817 0.0
-1.53304 -1.0666 0.0
-2.02452 -1.05426 0.0
-3.1995 0.869578 0.0
-3.15108 0.887901 0.0
-3.1991 1.69041 0.0
-3.69298 1.68306 0.0
-3.78093 0.85427 0.0
-2.07687 -0.941685 0.0
-2.02564 -0.955562 0.0
-1.53417 -0.9679 0.0
-1.45849 -0.111511 0.0
-1.8914 -0.0402807 0.0
-1.98765 -0.0442418 0.0
2.97493 -0.961749 0.0
2.45254 -0.961792 0.0
2.37023 -1.69967 0.0
2.91956 -1.74964 0.0
2.99009 -1.75039 0.0
1.19289 1.22593 0.0
0.74408 1.19242 0.0
0.711866 0.31441 0.0
1.12965 0.249921 0.0
1.22914 0.325346 0.0
1.25024 1.1427 0.0
3.04567 1.73274 0.0
2.44147 1.76793 0.0
2.40764 1.18876 0.0
2.47666 1.00642 0.0
2.95493 0.96593 0.0
-2.47537 1.04328 0.0
-1.94898 1.05698 0.0
-1.91628 1.86439 0.0
-2.34149 1.86399 0.0
-2.45814 1.71947 0.0
0.654402 1.29003 0.0
0.737021 1.28811 0.0
1.18583 1.32162 0.0
1.21147 2.01811 0.0
1.1211 2.08926 0.0
0.623644 2.08948 0.0
-3.79085 -0.979958 0.0
-3.28658 -0.987283 0.0
-3.28066 -0.159599 0.0
-3.7644 -0.130298 0.0
3.04324 -1.83584 0.0
2.97271 -1.83509 0.0
2.90603 -2.53716 0.0
3.49086 -2.5937 0.0
3.55173 -1.87704 0.0
1.84763 0.275091 0.0
2.23712 0.280605 0.0
2.41453 0.941068 0.0
2.34552 1.12341 0.0
1.84787 1.13298 0.0
2.21128 2.02045 0.0
1.83472 2.01567 0.0
1.79797 1.22165 0.0
1.84658 1.22064 0.0
2.34422 1.21107 0.0
2.37805 1.79024 0.0
</DataArray>
</Points>
<Cells>
<DataArray type="Int32" Name="connectivity" format="ascii">
70 126 147 146 126 127 148 147 127 12 149 148 12 14 150 149 14 70 146 150 92 4 152 151 4 43 153 152 43 85 154 153 85 84 155 154 84 92 151 155 64 102 157 156 102 103 158 157 103 6 159 158 6 8 160 159 8 64 156 160 136 74 162 161 74 64 163 162 64 8 164 163 8 95 165 164 95 131 166 165 131 130 167 166 130 136 161 167 83 10 169 168 10 1 170 169 1 59 171 170 59 141 172 171 141 58 173 172 58 83 168 173 50 124 175 174 124 106 176 175 106 107 177 176 107 14 178 177 14 12 179 178 12 50 174 179 138 62 181 180 62 70 182 181 70 14 183 182 14 107 184 183 107 139 185 184 139 138 180 185 11 118 187 186 118 119 188 187 119 133 189 188 133 53 190 189 53 17 191 190 17 11 186 191 96 94 193 192 94 56 194 193 56 66 195 194 66 18 196 195 18 97 197 196 97 96 192 197 79 90 199 198 90 91 200 199 91 47 201 200 47 36 202 201 36 122 203 202 122 20 204 203 20 79 198 204 24 110 206 205 110 88 207 206 88 89 208 207 89 86 209 208 86 44 210 209 44 117 211 210 117 22 212 211 22 24 205 212 110 24 214 213 24 137 215 214 137 49 216 215 49 101 217 216 101 111 218 217 111 110 213 218 121 128 220 219 128 129 221 220 129 27 222 221 27 54 223 222 54 121 219 223 23 72 225 224 72 73 226 225 73 29 227 226 29 125 228 227 125 28 229 228 28 23 224 229 30 76 231 230 76 77 232 231 77 25 233 232 25 31 234 233 31 132 235 234 132 30 230 235 78 0 237 236 0 15 238 237 15 90 239 238 90 79 240 239 79 78 236 240 98 114 242 241 114 115 243 242 115 19 244 243 19 26 245 244 26 55 246 245 55 60 247 246 60 98 241 247 66 112 249 248 112 113 250 249 113 21 251 250 21 18 252 251 18 66 248 252 134 108 254 253 108 68 255 254 68 38 256 255 38 135 257 256 135 134 253 257 99 142 259 258 142 143 260 259 143 145 261 260 145 80 262 261 80 40 263 262 40 99 258 263 42 82 265 264 82 83 266 265 83 58 267 266 58 19 268 267 19 115 269 268 115 34 270 269 34 42 264 270 44 86 272 271 86 87 273 272 87 72 274 273 72 23 275 274 23 135 276 275 135 38 277 276 38 44 271 277 4 92 279 278 92 93 280 279 93 46 281 280 46 4 278 281 100 16 283 282 16 48 284 283 48 111 285 284 111 101 286 285 101 100 282 286 124 50 288 287 50 69 289 288 69 28 290 289 28 125 291 290 125 124 287 291 30 132 293 292 132 133 294 293 133 119 295 294 119 52 296 295 52 30 292 296 120 118 298 297 118 11 299 298 11 60 300 299 60 55 301 300 55 128 302 301 128 121 303 302 121 120 297 303 56 94 305 304 94 95 306 305 95 8 307 306 8 6 308 307 6 56 304 308 140 26 310 309 26 19 311 310 19 58 312 311 58 141 313 312 141 140 309 313 98 60 315 314 60 11 316 315 11 17 317 316 17 142 318 317 142 99 319 318 99 98 314 319 32 62 321 320 62 138 322 321 138 63 323 322 63 33 324 323 33 32 320 324 116 102 326 325 102 64 327 326 64 74 328 327 74 22 329 328 22 117 330 329 117 116 325 330 112 66 332 331 66 56 333 332 56 6 334 333 6 103 335 334 103 105 336 335 105 104 337 336 104 112 331 337 68 108 339 338 108 109 340 339 109 37 341 340 37 39 342 341 39 65 343 342 65 68 338 343 20 122 345 344 122 123 346 345 123 126 347 346 126 70 348 347 70 62 349 348 62 32 350 349 32 20 344 350 72 87 352 351 87 13 353 352 13 2 354 353 2 73 355 354 73 72 351 355 74 136 357 356 136 137 358 357 137 24 359 358 24 22 360 359 22 74 356 360 76 3 362 361 3 16 363 362 16 100 364 363 100 77 365 364 77 76 361 365 33 78 367 366 78 79 368 367 79 20 369 368 20 32 370 369 32 33 366 370 144 41 372 371 41 75 373 372 75 80 374 373 80 145 375 374 145 144 371 375 82 85 377 376 85 43 378 377 43 10 379 378 10 83 380 379 83 82 376 380 21 84 382 381 84 85 383 382 85 82 384 383 82 42 385 384 42 97 386 385 97 18 387 386 18 21 381 387 86 89 389 388 89 45 390 389 45 13 391 390 13 87 392 391 87 86 388 392 88 5 394 393 5 45 395 394 45 89 396 395 89 88 393 396 90 15 398 397 15 46 399 398 46 93 400 399 93 91 401 400 91 90 397 401 92 84 403 402 84 21 404 403 21 113 405 404 113 47 406 405 47 91 407 406 91 93 408 407 93 92 402 408 94 96 410 409 96 57 411 410 57 35 412 411 35 131 413 412 131 95 414 413 95 94 409 414 57 96 416 415 96 97 417 416 97 42 418 417 42 34 419 418 34 61 420 419 61 57 415 420 114 98 422 421 98 99 423 422 99 40 424 423 40 35 425 424 35 57 426 425 57 61 427 426 61 114 421 427 77 100 429 428 100 101 430 429 101 49 431 430 49 41 432 431 41 144 433 432 144 25 434 433 25 77 428 434 102 116 436 435 116 65 437 436 65 39 438 437 39 105 439 438 105 103 440 439 103 102 435 440 67 104 442 441 104 105 443 442 105 39 444 443 39 37 445 444 37 71 446 445 71 67 441 446 106 51 448 447 51 7 449 448 7 139 450 449 139 107 451 450 107 106 447 451 108 134 453 452 134 69 454 453 69 50 455 454 50 12 456 455 12 127 457 456 127 109 458 457 109 108 452 458 88 110 460 459 110 111 461 460 111 48 462 461 48 5 463 462 5 88 459 463 112 104 465 464 104 67 466 465 67 36 467 466 36 47 468 467 47 113 469 468 113 112 464 469 114 61 471 470 61 34 472 471 34 115 473 472 115 114 470 473 65 116 475 474 116 117 476 475 117 44 477 476 44 38 478 477 38 68 479 478 68 65 474 479 118 120 481 480 120 9 482 481 9 52 483 482 52 119 484 483 119 118 480 484 9 120 486 485 120 121 487 486 121 54 488 487 54 9 485 488 122 36 490 489 36 67 491 490 67 71 492 491 71 123 493 492 123 122 489 493 106 124 495 494 124 125 496 495 125 29 497 496 29 51 498 497 51 106 494 498 126 123 500 499 123 71 501 500 71 37 502 501 37 109 503 502 109 127 504 503 127 126 499 504 128 55 506 505 55 26 507 506 26 140 508 507 140 129 509 508 129 128 505 509 75 130 511 510 130 131 512 511 131 35 513 512 35 40 514 513 40 80 515 514 80 75 510 515 132 31 517 516 31 81 518 517 81 53 519 518 53 133 520 519 133 132 516 520 69 134 522 521 134 135 523 522 135 23 524 523 23 28 525 524 28 69 521 525 136 130 527 526 130 75 528 527 75 41 529 528 41 49 530 529 49 137 531 530 137 136 526 531 63 138 533 532 138 139 534 533 139 7 535 534 7 63 532 535 129 140 537 536 140 141 538 537 141 59 539 538 59 27 540 539 27 129 536 540 142 17 542 541 17 53 543 542 53 81 544 543 81 143 545 544 143 142 541 545 25 144 547 546 144 145 548 547 145 143 549 548 143 81 550 549 81 31 551 550 31 25 546 551 
</DataArray>
<DataArray type="Int32" Name="offsets" format="ascii">
4 8 12 16 20 24 28 32 36 40 44 48 52 56 60 64 68 72 76 80 84 88 92 96 100 104 108 112 116 120 124 128 132 136 140 144 148 152 156 160 164 168 172 176 180 184 188 192 196 200 204 208 212 216 220 224 228 232 236 240 244 248 252 256 260 264 268 272 276 280 284 288 292 296 300 304 308 312 316 320 324 328 332 336 340 344 348 352 356 360 364 368 372 376 380 384 388 392 396 400 404 408 412 416 420 424 428 432 436 440 444 448 452 456 460 464 468 472 476 480 484 488 492 496 500 504 508 512 516 520 524 528 532 536 540 544 548 552 556 560 564 568 572 576 580 584 588 592 596 600 604 608 612 616 620 624 628 632 636 640 644 648 652 656 660 664 668 672 676 680 684 688 692 696 700 704 708 712 716 720 724 728 732 736 740 744 748 752 756 760 764 768 772 776 780 784 788 792 796 800 804 808 812 816 820 824 828 832 836 840 844 848 852 856 860 864 868 872 876 880 884 888 892 896 900 904 908 912 916 920 924 928 932 936 940 944 948 952 956 960 964 968 972 976 980 984 988 992 996 1000 1004 1008 1012 1016 1020 1024 1028 1032 1036 1040 1044 1048 1052 1056 1060 1064 1068 1072 1076 1080 1084 1088 1092 1096 1100 1104 1108 1112 1116 1120 1124 1128 1132 1136 1140 1144 1148 1152 1156 1160 1164 1168 1172 1176 1180 1184 1188 1192 1196 1200 1204 1208 1212 1216 1220 1224 1228 1232 1236 1240 1244 1248 1252 1256 1260 1264 1268 1272 1276 1280 1284 1288 1292 1296 1300 1304 1308 1312 1316 1320 1324 1328 1332 1336 1340 1344 1348 1352 1356 1360 1364 1368 1372 1376 1380 1384 1388 1392 1396 1400 1404 1408 1412 1416 1420 1424 1428 1432 1436 1440 1444 1448 1452 1456 1460 1464 1468 1472 1476 1480 1484 1488 1492 1496 1500 1504 1508 1512 1516 1520 1524 1528 1532 1536 1540 1544 1548 1552 1556 1560 1564 1568 1572 1576 1580 1584 1588 1592 1596 1600 1604 1608 1612 1616 1620 1624 
</DataArray>
<DataArray type="UInt8" Name="types" format="ascii">
7 7 7 7 7 7 7 7 7 7 7 7 7 7 7 7 7 7 7 7 7 7 7 7 7 7 7 7 7 7 7 7 7 7 7 7 7 7 7 7 7 7 7 7 7 7 7 7 7 7 7 7 7 7 7 7 7 7 7 7 7 7 7 7 7 7 7 7 7 7 7 7 7 7 7 7 7 7 7 7 7 7 7 7 7 7 7 7 7 7 7 7 7 7 7 7 7 7 7 7 7 7 7 7 7 7 7 7 7 7 7 7 7 7 7 7 7 7 7 7 7 7 7 7 7 7 7 7 7 7 7 7 7 7 7 7 7 7 7 7 7 7 7 7 7 7 7 7 7 7 7 7 7 7 7 7 7 7 7 7 7 7 7 7 7 7 7 7 7 7 7 7 7 7 7 7 7 7 7 7 7 7 7 7 7 7 7 7 7 7 7 7 7 7 7 7 7 7 7 7 7 7 7 7 7 7 7 7 7 7 7 7 7 7 7 7 7 7 7 7 7 7 7 7 7 7 7 7 7 7 7 7 7 7 7 7 7 7 7 7 7 7 7 7 7 7 7 7 7 7 7 7 7 7 7 7 7 7 7 7 7 7 7 7 7 7 7 7 7 7 7 7 7 7 7 7 7 7 7 7 7 7 7 7 7 7 7 7 7 7 7 7 7 7 7 7 7 7 7 7 7 7 7 7 7 7 7 7 7 7 7 7 7 7 7 7 7 7 7 7 7 7 7 7 7 7 7 7 7 7 7 7 7 7 7 7 7 7 7 7 7 7 7 7 7 7 7 7 7 7 7 7 7 7 7 7 7 7 7 7 7 7 7 7 7 7 7 7 7 7 7 7 7 7 7 7 7 7 7 7 7 7 7 7 7 7 7 7 7 7 7 7 7 7 7 7 7 7 7 7 7 7 7 7 7 7 
</DataArray>
</Cells>
<CellData Scalars="wall variable 0">
<DataArray type="Float64" Name="wall length" format="ascii">
0.434136 0.94061 0.357015 0.22468 0.607086 0.47566 0.861995 0.611841 0.962463 0.0550672 0.45945 0.940341 0.219311 0.521834 0.526506 0.449009 0.138889 0.526506 0.230927 0.15584 0.92723 0.0758987 0.540274 1.15015 0.424687 0.590825 0.536564 0.171717 0.448399 0.0494367 0.86623 0.449597 0.22468 0.612109 0.507302 0.0679829 0.607086 0.449597 0.0529585 0.88873 0.499828 0.814241 0.0500304 0.452227 0.581737 0.205224 0.054708 0.446306 0.184923 0.659354 0.440261 0.965019 0.178843 0.949939 0.434587 0.151069 0.440376 0.304867 0.400993 0.408519 0.0449684 1.00006 0.0649609 0.446064 0.366669 0.439742 0.164157 0.408519 0.378013 0.423966 0.414956 0.101864 1.0188 0.053854 0.833647 0.501354 0.742374 0.554721 0.407012 1.09737 0.660558 0.482951 0.572489 0.15333 0.648055 1.08554 0.319041 0.239054 0.566752 0.469827 0.407691 1.04647 0.484506 0.178843 1.07391 0.0471873 0.924827 0.331565 0.158533 0.637226 0.0719307 0.515779 0.462866 0.896633 0.399275 0.191385 0.659354 0.0543916 0.462111 0.688157 0.50699 0.863657 0.0568879 0.939018 0.0456388 0.410753 0.712358 0.376274 0.502462 0.969757 0.171717 0.488094 0.331565 0.526967 0.0979894 0.446064 1.00219 0.185784 0.407012 0.370437 0.50699 0.0959271 0.47566 0.97411 0.508424 0.909887 0.434176 0.822591 0.449833 0.101864 1.0096 0.448399 0.116775 0.582301 0.572489 0.842333 0.469827 0.822124 0.0500304 0.611085 0.698354 0.0574964 0.499828 0.637865 0.0719307 0.487521 0.053854 0.846063 0.446306 0.988936 0.230927 0.521834 0.595932 0.514254 0.158533 0.488094 0.536564 0.76626 0.515779 0.637865 0.205224 0.333895 0.0568879 0.974098 0.663537 0.507302 0.505922 0.693076 1.00084 0.0544929 0.45945 0.138889 0.619949 0.439742 0.906964 0.462866 0.184923 0.595932 0.219311 0.165297 0.966467 0.065305 0.462111 0.91765 0.375147 0.13245 0.704716 0.0808593 0.304867 0.954363 0.0483888 0.434136 0.0679829 0.663537 0.15839 0.185784 0.493001 1.07747 0.420549 1.09737 0.449009 0.858394 0.378013 0.164157 0.619949 0.468138 0.96497 0.434176 0.211567 1.08554 0.628483 1.07391 0.400993 0.15839 1.00084 0.437133 0.615119 0.08514 0.410753 0.880596 0.0742343 0.611841 0.758274 0.540274 0.969757 0.505265 0.962463 0.0742343 0.502462 0.369118 0.440261 0.191385 0.0649609 0.557497 0.783695 0.493001 1.00219 0.462145 0.883176 0.557497 1.00006 0.484506 0.749052 0.508424 0.12802 0.949939 0.0550672 0.505265 0.399275 0.402821 0.434587 0.12802 0.97411 0.054708 0.491129 0.771015 0.356869 0.15584 0.988936 0.491129 0.965019 0.369118 0.0979894 0.759289 0.0896722 0.0471873 0.974098 0.376274 0.0990434 0.771015 0.0896722 0.425028 0.211567 1.0096 0.414956 0.0938142 0.437133 0.325202 0.319041 0.0544929 0.48989 0.704716 0.347828 0.165297 0.940341 0.433522 0.966467 0.347828 0.13245 0.745349 0.103742 0.58763 0.690061 0.474638 0.0529585 0.86623 0.0543916 0.488726 0.116775 0.612109 0.357015 0.0827761 0.91765 0.0449684 1.0188 0.449833 0.913285 0.462145 0.065305 0.433522 0.678114 0.151069 0.402821 0.896633 0.425028 0.759289 0.526967 0.924827 0.48989 0.906964 0.366669 0.0959271 0.688157 0.0808593 0.0574964 0.511822 0.635594 0.611085 0.814241 0.511822 0.846063 0.554721 0.722209 0.440376 0.678114 0.103742 0.446899 0.954363 0.0494367 0.842333 0.482951 0.726819 0.58763 0.0483888 0.446899 0.745349 0.375147 0.0827761 0.94061 0.487521 0.637226 0.514254 0.0673081 0.833647 0.413927 0.92723 0.356869 0.0990434 0.712358 0.08514 0.566752 0.50349 0.16388 0.452227 0.822124 0.488726 0.863657 0.370437 0.15333 0.582301 0.0758987 0.413927 0.615119 0.0938142 0.423966 0.858394 0.505922 0.88873 0.474638 0.734855 0.0673081 0.76626 0.590825 0.647411 0.501354 0.333895 0.581737 0.16388 0.469637 0.939018 0.325202 0.880596 0.0456388 0.469637 0.50349 0.239054 
</DataArray>
<DataArray type="Float64" Name="wall variable 0" format="ascii">
0 0 0 0 0 0 0 0 0 0 0 0 0 0 0 0 0 0 0 0 0 0 0 0 0 0 0 0 0 0 0 0 0 0 0 0 0 0 0 0 0 0 0 0 0 0 0 0 0 0 0 0 0 0 0 0 0 0 0 0 0 0 0 0 0 0 0 0 0 0 0 0 0 0 0 0 0 0 0 0 0 0 0 0 0 0 0 0 0 0 0 0 0 0 0 0 0 0 0 0 0 0 0 0 0 0 0 0 0 0 0 0 0 0 0 0 0 0 0 0 0 0 0 0 0 0 0 0 0 0 0 0 0 0 0 0 0 0 0 0 0 0 0 0 0 0 0 0 0 0 0 0 0 0 0 0 0 0 0 0 0 0 0 0 0 0 0 0 0 0 0 0 0 0 0 0 0 0 0 0 0 0 0 0 0 0 0 0 0 0 0 0 0 0 0 0 0 0 0 0 0 0 0 0 0 0 0 0 0 0 0 0 0 0 0 0 0 0 0 0 0 0 0 0 0 0 0 0 0 0 0 0 0 0 0 0 0 0 0 0 0 0 0 0 0 0 0 0 0 0 0 0 0 0 0 0 0 0 0 0 0 0 0 0 0 0 0 0 0 0 0 0 0 0 0 0 0 0 0 0 0 0 0 0 0 0 0 0 0 0 0 0 0 0 0 0 0 0 0 0 0 0 0 0 0 0 0 0 0 0 0 0 0 0 0 0 0 0 0 0 0 0 0 0 0 0 0 0 0 0 0 0 0 0 0 0 0 0 0 0 0 0 0 0 0 0 0 0 0 0 0 0 0 0 0 0 0 0 0 0 0 0 0 0 0 0 0 0 0 0 0 0 0 0 0 0 0 0 0 0 0 0 0 0 0 0 0 0 0 0 0 0 0 0 0 0 0 0 0 0 0 0 0 0 0 0 
</DataArray>
<DataArray type="Float64" Name="wall variable 1" format="ascii">
0 0 0 0 0 0 0 0 0 0 0 0 0 0 0 0 0 0 0 0 0 0 0 0 0 0 0 0 0 0 0 0 0 0 0 0 0 0 0 0 0 0 0 0 0 0 0 0 0 0 0 0 0 0 0 0 0 0 0 0 0 0 0 0 0 0 0 0 0 0 0 0 0 0 0 0 0 0 0 0 0 0 0 0 0 0 0 0 0 0 0 0 0 0 0 0 0 0 0 0 0 0 0 0 0 0 0 0 0 0 0 0 0 0 0 0 0 0 0 0 0 0 0 0 0 0 0 0 0 0 0 0 0 0 0 0 0 0 0 0 0 0 0 0 0 0 0 0 0 0 0 0 0 0 0 0 0 0 0 0 0 0 0 0 0 0 0 0 0 0 0 0 0 0 0 0 0 0 0 0 0 0 0 0 0 0 0 0 0 0 0 0 0 0 0 0 0 0 0 0 0 0 0 0 0 0 0 0 0 0 0 0 0 0 0 0 0 0 0 0 0 0 0 0 0 0 0 0 0 0 0 0 0 0 0 0 0 0 0 0 0 0 0 0 0 0 0 0 0 0 0 0 0 0 0 0 0 0 0 0 0 0 0 0 0 0 0 0 0 0 0 0 0 0 0 0 0 0 0 0 0 0 0 0 0 0 0 0 0 0 0 0 0 0 0 0 0 0 0 0 0 0 0 0 0 0 0 0 0 0 0 0 0 0 0 0 0 0 0 0 0 0 0 0 0 0 0 0 0 0 0 0 0 0 0 0 0 0 0 0 0 0 0 0 0 0 0 0 0 0 0 0 0 0 0 0 0 0 0 0 0 0 0 0 0 0 0 0 0 0 0 0 0 0 0 0 0 0 0 0 0 0 0 0 0 0 0 0 0 0 0 0 0 0 0 0 0 0 0 0 0 0 0 0 0 0 
</DataArray>
</CellData>
</Piece>
</UnstructuredGrid>
</VTKFile>
