<VTKFile type="UnstructuredGrid" version="0.1">
<UnstructuredGrid>
<Piece  NumberOfPoints="      28" NumberOfCells="      18">
<Points>
<DataArray type="Float64" NumberOfComponents="3" format="ascii">
-0.719409 -0.726465 0 
0.719446 -0.726401 0 
-0.719399 0.711819 0 
0.719454 0.711882 0 
0.00217845 -0.726704 0 
-0.00213018 0.712411 0 
-0.00432443 -0.007154 0 
-0.739721 -0.00807396 0 
0.00410535 0.0648199 0 
0.7398 -0.00613407 0 
-0.0345637 -0.690629 0.0
-0.0404163 -0.0430348 0.0
-0.702273 -0.0438627 0.0
-0.683993 -0.690414 0.0
0.0395596 0.0237466 0.0
0.0319728 -0.0410299 0.0
0.0378254 -0.688625 0.0
0.683366 -0.688353 0.0
0.701685 -0.0401119 0.0
-0.0403308 0.0285839 0.0
-0.032744 0.0933604 0.0
-0.038356 0.676192 0.0
-0.683898 0.67566 0.0
-0.702188 0.027756 0.0
0.0352362 0.678114 0.0
0.0408482 0.0952823 0.0
0.702974 0.0314238 0.0
0.684662 0.677638 0.0
</DataArray>
</Points>
<Cells>
<DataArray type="Int32" Name="connectivity" format="ascii">
4 6 11 10 6 7 12 11 7 0 13 12 0 4 10 13 8 6 15 14 6 4 16 15 4 1 17 16 1 9 18 17 9 8 14 18 6 8 20 19 8 5 21 20 5 2 22 21 2 7 23 22 7 6 19 23 5 8 25 24 8 9 26 25 9 3 27 26 3 5 24 27 
</DataArray>
<DataArray type="Int32" Name="offsets" format="ascii">
4 8 12 16 20 24 28 32 36 40 44 48 52 56 60 64 68 72 
</DataArray>
<DataArray type="UInt8" Name="types" format="ascii">
7 7 7 7 7 7 7 7 7 7 7 7 7 7 7 7 7 7 
</DataArray>
</Cells>
<CellData Scalars="wall variable 0">
<DataArray type="Float64" Name="wall length" format="ascii">
0.654332 0.709414 0.653926 0.65653 0.0656046 0.654332 0.652518 0.655291 0.713029 0.0656046 0.589978 0.652518 0.655268 0.709414 0.589978 0.713029 0.653903 0.65653 
</DataArray>
<DataArray type="Float64" Name="wall variable 0" format="ascii">
0 0 0 0 0 0 0 0 0 0 0 0 0 0 0 0 0 0 
</DataArray>
<DataArray type="Float64" Name="wall variable 1" format="ascii">
0 0 0 0 0 0 0 0 0 0 0 0 0 0 0 0 0 0 
</DataArray>
</CellData>
</Piece>
</UnstructuredGrid>
</VTKFile>
