<VTKFile type="UnstructuredGrid" version="0.1">
<UnstructuredGrid>
<Piece  NumberOfPoints="     352" NumberOfCells="      63">
<Points>
<DataArray type="Float64" NumberOfComponents="3" format="ascii">
-2.29088 -0.796332 0.0
-1.84861 -0.818761 0.0
-1.76398 0.0179238 0.0
-2.1456 0.0611176 0.0
-2.2965 -0.138256 0.0
0.00934694 -2.56134 0.0
0.0504483 -3.02886 0.0
0.985692 -3.04434 0.0
0.974908 -2.44854 0.0
0.0299864 -2.50857 0.0
0.110223 0.9546 0.0
-0.361937 0.919647 0.0
-0.403508 0.0455134 0.0
-0.166941 0.000279808 0.0
0.252347 0.398446 0.0
0.255152 1.12209 0.0
0.198911 0.980245 0.0
0.341035 0.424091 0.0
0.588322 0.36482 0.0
1.14442 0.285385 0.0
1.23471 0.353448 0.0
1.25478 1.11183 0.0
1.20616 1.19004 0.0
2.17718 -2.46621 0.0
2.01348 -2.97526 0.0
3.1886 -2.83297 0.0
3.35563 -2.43867 0.0
2.26745 -2.31248 0.0
-2.28848 0.797535 0.0
-2.73733 0.781284 0.0
-2.78609 0.777774 0.0
-2.80212 -0.0221162 0.0
-2.34377 -0.0635006 0.0
-2.19287 0.135873 0.0
-2.37538 -0.807188 0.0
-2.38099 -0.149112 0.0
-2.83934 -0.107728 0.0
-3.36427 -0.0715694 0.0
-3.40073 -0.861168 0.0
-2.40793 -0.873969 0.0
2.37574 0.0944824 0.0
2.88652 0.107267 0.0
2.90937 0.853542 0.0
2.41388 0.897345 0.0
2.25036 0.286727 0.0
0.542074 -0.781827 0.0
0.486269 -0.770248 0.0
0.0234327 -0.802914 0.0
-0.0611944 -0.988651 0.0
0.0713258 -1.68739 0.0
0.554099 -1.69114 0.0
-2.14176 -2.29481 0.0
-2.07606 -2.46648 0.0
-1.17548 -2.37891 0.0
-1.14928 -1.93334 0.0
-1.28402 -1.83224 0.0
-1.75825 -1.85932 0.0
-2.08576 -1.87629 0.0
0.156572 2.04257 0.0
0.0971883 2.46319 0.0
0.0792456 2.50548 0.0
-0.880053 2.44668 0.0
-0.907909 2.38689 0.0
-0.863818 1.92682 0.0
-0.462175 1.92479 0.0
0.0196014 1.9203 0.0
0.205232 2.47212 0.0
0.264615 2.05149 0.0
1.13499 2.05113 0.0
1.15466 2.47202 0.0
1.14294 2.57234 0.0
3.43242 -1.61912 0.0
3.50866 -0.830727 0.0
2.96663 -0.835519 0.0
2.42751 -0.840376 0.0
2.34988 -1.52498 0.0
-2.12632 1.83883 0.0
-2.19084 2.26312 0.0
-3.24432 2.38452 0.0
-3.29317 1.69664 0.0
-2.80847 1.70235 0.0
-2.23206 1.70631 0.0
3.4521 1.69969 0.0
3.40184 2.37341 0.0
2.35802 2.29296 0.0
2.25862 1.97255 0.0
2.41379 1.7624 0.0
-3.26395 -2.46801 0.0
-3.10876 -2.84768 0.0
-2.04438 -2.97875 0.0
-2.17303 -2.51814 0.0
-2.23873 -2.34647 0.0
1.77241 -0.788384 0.0
1.72476 -0.7987 0.0
1.78797 -1.64722 0.0
2.14329 -1.6561 0.0
2.25798 -1.52335 0.0
2.33561 -0.838746 0.0
2.30005 -0.767888 0.0
-0.120614 -1.01077 0.0
-0.596573 -1.0332 0.0
-0.578915 -1.85891 0.0
-0.14447 -1.8566 0.0
0.0119061 -1.70951 0.0
-1.121 1.05082 0.0
-1.07259 1.78015 0.0
-2.01393 1.77818 0.0
-2.11967 1.64567 0.0
-2.14339 1.01826 0.0
-1.59329 1.0334 0.0
1.35854 1.10787 0.0
1.33847 0.349488 0.0
1.74758 0.316888 0.0
2.17064 0.310881 0.0
2.33416 0.921499 0.0
2.28347 1.09251 0.0
1.09451 -1.78858 0.0
1.1278 -2.31303 0.0
2.07551 -2.40709 0.0
2.16578 -2.25336 0.0
2.10429 -1.74196 0.0
1.74898 -1.73308 0.0
1.18155 -1.71945 0.0
-0.979531 1.92007 0.0
-1.02362 2.38014 0.0
-1.99119 2.45002 0.0
-2.0704 2.27547 0.0
-2.00588 1.85118 0.0
-1.06453 1.85315 0.0
-0.0570744 -3.03422 0.0
-0.0981757 -2.56669 0.0
-1.03006 -2.56905 0.0
-1.03947 -3.05992 0.0
2.19486 2.5796 0.0
2.11892 2.99849 0.0
1.24324 3.05531 0.0
1.24052 2.6217 0.0
1.25225 2.52138 0.0
-2.73508 0.871268 0.0
-2.28624 0.88752 0.0
-2.23151 1.00445 0.0
-2.2078 1.63186 0.0
-2.78421 1.6279 0.0
3.53396 0.882667 0.0
3.45834 1.62556 0.0
2.42003 1.68826 0.0
2.3983 1.14949 0.0
2.44899 0.978476 0.0
2.94448 0.934673 0.0
2.94981 0.0199072 0.0
2.89172 0.0224729 0.0
2.38093 0.00968841 0.0
2.36364 -0.685891 0.0
2.3992 -0.756749 0.0
2.93832 -0.751891 0.0
0.0197411 -0.70144 0.0
0.482578 -0.668774 0.0
0.534857 0.26769 0.0
0.28757 0.326961 0.0
-0.131718 -0.0712048 0.0
2.22436 -1.73471 0.0
2.28584 -2.2461 0.0
3.37401 -2.37229 0.0
3.42159 -1.69609 0.0
2.33905 -1.60195 0.0
1.77352 -0.693466 0.0
2.30117 -0.67297 0.0
2.31846 0.0226085 0.0
2.19308 0.214853 0.0
1.77001 0.22086 0.0
-2.32493 -1.6634 0.0
-2.40587 -0.956144 0.0
-3.39866 -0.943343 0.0
-3.3279 -1.67896 0.0
-0.422898 1.01473 0.0
-0.366876 1.01179 0.0
0.105284 1.04674 0.0
0.161525 1.18859 0.0
0.0406866 1.84262 0.0
-0.44109 1.84711 0.0
-0.602505 -0.940865 0.0
-0.126546 -0.918437 0.0
-0.0419185 -0.732699 0.0
-0.193377 -0.102464 0.0
-0.429944 -0.0572306 0.0
-0.610135 -0.0398389 0.0
-0.669497 -0.93564 0.0
-1.09196 0.961546 0.0
-1.56425 0.944122 0.0
-1.60341 0.0975011 0.0
-1.20141 0.0416443 0.0
-1.07948 0.129969 0.0
-1.0421 0.888328 0.0
-2.12478 -1.79459 0.0
-1.79727 -1.77762 0.0
-1.79886 -0.915711 0.0
-1.84808 -0.913112 0.0
-2.29035 -0.890683 0.0
-2.32291 -0.957464 0.0
-2.24197 -1.66472 0.0
-2.17273 2.32628 0.0
-2.09353 2.50082 0.0
-1.95957 2.96846 0.0
-3.05923 2.8369 0.0
-3.22622 2.44768 0.0
0.125811 1.86176 0.0
0.24665 1.20772 0.0
1.19765 1.27568 0.0
1.21795 1.92265 0.0
1.13315 1.98367 0.0
0.262781 1.98403 0.0
3.38846 2.436 0.0
3.20978 2.8719 0.0
2.22697 2.98576 0.0
2.30291 2.56688 0.0
2.34465 2.35554 0.0
-3.31948 -1.75223 0.0
-3.28052 -2.40658 0.0
-2.25531 -2.28505 0.0
-2.1993 -1.86654 0.0
-2.3165 -1.73667 0.0
1.30903 1.26858 0.0
1.35765 1.19037 0.0
2.28259 1.17501 0.0
2.30432 1.71378 0.0
2.14915 1.92394 0.0
1.32932 1.91556 0.0
1.11585 -2.37903 0.0
1.07475 -2.44365 0.0
1.08554 -3.03945 0.0
1.89986 -2.98214 0.0
2.06356 -2.47308 0.0
-0.0644939 -1.92163 0.0
0.0264812 -2.44268 0.0
0.971403 -2.38265 0.0
1.0125 -2.31803 0.0
0.979214 -1.79357 0.0
0.574655 -1.7783 0.0
0.0918822 -1.77455 0.0
-1.01425 2.44 0.0
-0.986396 2.49979 0.0
-1.00815 3.03931 0.0
-1.84786 2.97752 0.0
-1.98182 2.50988 0.0
0.0735904 2.5635 0.0
0.0483666 3.01913 0.0
-0.907459 3.04422 0.0
-0.885709 2.5047 0.0
-2.06622 -2.52669 0.0
-1.93757 -2.9873 0.0
-1.13842 -3.05332 0.0
-1.12901 -2.56245 0.0
-1.16564 -2.43912 0.0
-0.100973 -2.50862 0.0
-0.0803333 -2.45586 0.0
-0.171308 -1.93481 0.0
-0.605754 -1.93713 0.0
-1.04328 -1.94209 0.0
-1.06949 -2.38766 0.0
-1.03286 -2.51098 0.0
0.543136 -0.669577 0.0
0.59894 -0.681156 0.0
1.10844 -0.645557 0.0
1.15151 0.187453 0.0
0.595415 0.266887 0.0
1.11144 -0.745368 0.0
0.60194 -0.780967 0.0
0.613966 -1.69028 0.0
1.01852 -1.70556 0.0
1.10556 -1.63643 0.0
1.16957 -0.825548 0.0
1.66756 -0.704553 0.0
1.71521 -0.694237 0.0
1.7117 0.22009 0.0
1.30259 0.25269 0.0
1.2123 0.184627 0.0
1.16922 -0.648383 0.0
1.22736 -0.728563 0.0
2.24202 2.3145 0.0
2.20029 2.52584 0.0
1.25768 2.46761 0.0
1.238 2.04673 0.0
1.32279 1.98571 0.0
2.14262 1.99409 0.0
-0.421939 0.918555 0.0
-0.477961 0.921501 0.0
-0.981353 0.886446 0.0
-1.01872 0.128086 0.0
-0.643701 0.0618127 0.0
-0.463509 0.044421 0.0
-1.17216 -0.946846 0.0
-0.726462 -0.930455 0.0
-0.667101 -0.0346537 0.0
-1.04212 0.0316199 0.0
-1.16406 -0.0567048 0.0
-1.23384 -0.851446 0.0
-2.84704 0.780097 0.0
-3.41664 0.761632 0.0
-3.38799 0.0163649 0.0
-2.86307 -0.0197933 0.0
-1.62298 0.947868 0.0
-2.17308 0.932732 0.0
-2.22781 0.815804 0.0
-2.1322 0.154142 0.0
-1.75058 0.110948 0.0
-1.66214 0.101247 0.0
0.180942 2.56594 0.0
0.198885 2.52365 0.0
1.13659 2.62388 0.0
1.13931 3.05748 0.0
0.155718 3.02158 0.0
-0.656188 -1.03367 0.0
-0.723181 -1.02844 0.0
-1.16888 -1.04483 0.0
-1.2108 -1.76324 0.0
-1.07606 -1.86435 0.0
-0.638531 -1.85938 0.0
1.66734 -0.804735 0.0
1.22714 -0.828746 0.0
1.16313 -1.63963 0.0
1.73055 -1.65325 0.0
-0.984955 0.978069 0.0
-0.481562 1.01312 0.0
-0.499754 1.8455 0.0
-0.901398 1.84753 0.0
-0.9864 1.78061 0.0
-1.03481 1.05129 0.0
2.95055 0.106381 0.0
3.00864 0.103816 0.0
3.51955 0.115088 0.0
3.56287 0.800651 0.0
2.9734 0.852657 0.0
3.52167 0.0315038 0.0
3.01076 0.0202313 0.0
2.99928 -0.751567 0.0
3.54131 -0.746776 0.0
-1.74338 -1.77953 0.0
-1.26915 -1.75245 0.0
-1.22722 -1.03404 0.0
-1.2889 -0.938638 0.0
-1.74497 -0.917623 0.0
-2.84417 0.863349 0.0
-2.79541 0.866858 0.0
-2.84453 1.62349 0.0
-3.32923 1.61778 0.0
-3.41377 0.844883 0.0
-1.79488 -0.823492 0.0
-1.74566 -0.826091 0.0
-1.28959 -0.847107 0.0
-1.21981 -0.0523657 0.0
-1.62182 0.00349114 0.0
-1.71025 0.0131925 0.0
</DataArray>
</Points>
<Cells>
<DataArray type="Int32" Name="connectivity" format="ascii">
0 1 2 3 4 
5 6 7 8 9 
10 11 12 13 14 
15 16 17 18 19 20 21 22 
23 24 25 26 27 
28 29 30 31 32 33 
34 35 36 37 38 39 
40 41 42 43 44 
45 46 47 48 49 50 
51 52 53 54 55 56 57 
58 59 60 61 62 63 64 65 
66 67 68 69 70 
71 72 73 74 75 
76 77 78 79 80 81 
82 83 84 85 86 
87 88 89 90 91 
92 93 94 95 96 97 98 
99 100 101 102 103 
104 105 106 107 108 109 
110 111 112 113 114 115 
116 117 118 119 120 121 122 
123 124 125 126 127 128 
129 130 131 132 
133 134 135 136 137 
138 139 140 141 142 
143 144 145 146 147 148 
149 150 151 152 153 154 
155 156 157 158 159 
160 161 162 163 164 
165 166 167 168 169 
170 171 172 173 
174 175 176 177 178 179 
180 181 182 183 184 185 186 
187 188 189 190 191 192 
193 194 195 196 197 198 199 
200 201 202 203 204 
205 206 207 208 209 210 
211 212 213 214 215 
216 217 218 219 220 
221 222 223 224 225 226 
227 228 229 230 231 
232 233 234 235 236 237 238 
239 240 241 242 243 
244 245 246 247 
248 249 250 251 252 
253 254 255 256 257 258 259 
260 261 262 263 264 
265 266 267 268 269 270 
271 272 273 274 275 276 277 
278 279 280 281 282 283 
284 285 286 287 288 289 
290 291 292 293 294 295 
296 297 298 299 
300 301 302 303 304 305 
306 307 308 309 310 
311 312 313 314 315 316 
317 318 319 320 
321 322 323 324 325 326 
327 328 329 330 331 
332 333 334 335 
336 337 338 339 340 
341 342 343 344 345 
346 347 348 349 350 351 
</DataArray>
<DataArray type="Int32" Name="offsets" format="ascii">
5 10 15 23 28 34 40 45 51 58 66 71 76 82 87 92 99 104 110 116 123 129 133 138 143 149 155 160 165 170 174 180 187 193 200 205 211 216 221 227 232 239 244 248 253 260 265 271 278 284 290 296 300 306 311 317 321 327 332 336 341 346 352 
</DataArray>
<DataArray type="UInt8" Name="types" format="ascii">
7 7 7 7 7 7 7 7 7 7 7 7 7 7 7 7 7 7 7 7 7 7 7 7 7 7 7 7 7 7 7 7 7 7 7 7 7 7 7 7 7 7 7 7 7 7 7 7 7 7 7 7 7 7 7 7 7 7 7 7 7 7 7 
</DataArray>
</Cells>
<CellData Scalars="cell variable 4" Vectors="cell vector">
<DataArray type="Float64" NumberOfComponents="3" Name="cell vector" format="ascii">
0 1 1
0 1 1
0 1 1
0 1 1
0 1 1
0 1 1
0 1 1
0 1 1
0 1 1
0 1 1
0 1 1
0 1 1
0 1 1
0 1 1
0 1 1
0 1 1
0 1 1
0 1 1
0 1 1
0 1 1
0 1 1
0 1 1
0 1 1
0 1 1
0 1 1
0 1 1
0 1 1
0 1 1
0 1 1
0 1 1
0 1 1
0 1 1
0 1 1
0 1 1
0 1 1
0 1 1
0 1 1
0 1 1
0 1 1
0 1 1
0 1 1
0 1 1
0 1 1
0 1 1
0 1 1
0 1 1
0 1 1
0 1 1
0 1 1
0 1 1
0 1 1
0 1 1
0 1 1
0 1 1
0 1 1
0 1 1
0 1 1
0 1 1
0 1 1
0 1 1
0 1 1
0 1 1
0 1 1
</DataArray>
<DataArray type="Float64" Name="cell vector length" format="ascii">
0.00824589 0.0158734 0.00821095 0.0142376 0.0335486 0.0158831 0.0298815 0.0159986 0.0082692 0.0159227 0.0151643 0.0135067 0.0312366 0.0315349 0.030528 0.0301485 0.00853959 0.00855353 0.0149258 0.0140381 0.0168507 0.0162469 0.0151805 0.0145673 0.015113 0.0310082 0.0158835 0.00869649 0.0343024 0.00838279 0.0300517 0.00781304 0.00798901 0.00829173 0.00859542 0.0308792 0.014818 0.0295468 0.0307427 0.0142565 0.0160336 0.0161594 0.0155161 0.0147812 0.015296 0.0158358 0.00850399 0.00828801 0.00854453 0.0149029 0.00802476 0.00831762 0.0155169 0.00802229 0.0148488 0.00851447 0.00772596 0.00782106 0.0156098 0.0152938 0.00846531 0.0161269 0.00838723 
</DataArray>
<DataArray type="Float64" Name="cell variable 4" format="ascii">
0 0 0 0 0 0 0 0 0 0 0 0 0 0 0 0 0 0 0 0 0 0 0 0 0 0 0 0 0 0 0 0 0 0 0 0 0 0 0 0 0 0 0 0 0 0 0 0 0 0 0 0 0 0 0 0 0 0 0 0 0 0 0 
</DataArray>
<DataArray type="Float64" Name="cell variable 5" format="ascii">
0 0 0 0 0 0 0 0 0 0 0 0 0 0 0 0 0 0 0 0 0 0 0 0 0 0 0 0 0 0 0 0 0 0 0 0 0 0 0 0 0 0 0 0 0 0 0 0 0 0 0 0 0 0 0 0 0 0 0 0 0 0 0 
</DataArray>
<DataArray type="Float64" Name="cell variable 6" format="ascii">
0 0 0 0 0 0 0 0 0 0 0 0 0 0 0 0 0 0 0 0 0 0 0 0 0 0 0 0 0 0 0 0 0 0 0 0 0 0 0 0 0 0 0 0 0 0 0 0 0 0 0 0 0 0 0 0 0 0 0 0 0 0 0 
</DataArray>
<DataArray type="Float64" Name="cell variable 7" format="ascii">
0 0 0 0 0 0 0 0 0 0 0 0 0 0 0 0 0 0 0 0 0 0 0 0 0 0 0 0 0 0 0 0 0 0 0 0 0 0 0 0 0 0 0 0 0 0 0 0 0 0 0 0 0 0 0 0 0 0 0 0 0 0 0 
</DataArray>
<DataArray type="Float64" Name="cell variable 8" format="ascii">
0 0 0 0 0 0 0 0 0 0 0 0 0 0 0 0 0 0 0 0 0 0 0 0 0 0 0 0 0 0 0 0 0 0 0 0 0 0 0 0 0 0 0 0 0 0 0 0 0 0 0 0 0 0 0 0 0 0 0 0 0 0 0 
</DataArray>
</CellData>
</Piece>
</UnstructuredGrid>
</VTKFile>
