<VTKFile type="UnstructuredGrid" version="0.1">
<UnstructuredGrid>
<Piece  NumberOfPoints="      56" NumberOfCells="      38">
<Points>
<DataArray type="Float64" NumberOfComponents="3" format="ascii">
-1.24428 -1.20358 0 
1.24516 -1.19413 0 
-1.23407 1.17124 0 
1.24815 1.1833 0 
-0.00127083 -1.21718 0 
0.00901601 1.18257 0 
-0.0599497 -0.00182227 0 
-1.3169 -0.0175013 0 
0.0694057 0.0923686 0 
1.32657 0.00650294 0 
0.641242 -1.2581 0 
0.707251 0.0102546 0 
-0.689295 0.0176503 0 
-0.662417 1.22651 0 
-0.748616 -0.0262248 0 
-0.680594 -1.2574 0 
0.73294 1.23441 0 
0.657642 0.0511468 0 
-0.65792 -0.0455105 0.0
-0.711309 -0.0849981 0.0
-0.65009 -1.19306 0.0
-0.0386988 -1.15686 0.0
-0.0915098 -0.0630358 0.0
0.0311613 -1.15211 0.0
0.609423 -1.18894 0.0
0.668831 -0.0474195 0.0
0.624183 -0.0106164 0.0
0.0947701 0.0264832 0.0
-0.0216497 -0.0582886 0.0
-0.652432 0.075551 0.0
-0.0860213 0.0580257 0.0
0.0303985 0.142798 0.0
-0.0239522 1.12398 0.0
-0.628242 1.16352 0.0
0.696826 1.17694 0.0
0.0452947 1.13028 0.0
0.0996454 0.149098 0.0
0.629058 0.111998 0.0
0.674859 -1.19287 0.0
1.21839 -1.13529 0.0
1.29166 -0.0547204 0.0
0.734268 -0.0513439 0.0
-0.771164 0.034357 0.0
-0.717775 0.0738446 0.0
-0.693585 1.16181 0.0
-1.20807 1.11208 0.0
-1.28262 0.0422081 0.0
-0.773344 -0.0861008 0.0
-1.2848 -0.0782497 0.0
-1.21944 -1.14572 0.0
-0.712124 -1.19416 0.0
1.22223 1.1233 0.0
0.758538 1.1693 0.0
0.69077 0.10436 0.0
0.735418 0.0675573 0.0
1.29281 0.0641808 0.0
</DataArray>
</Points>
<Cells>
<DataArray type="Int32" Name="connectivity" format="ascii">
12 14 19 18 14 15 20 19 15 4 21 20 4 6 22 21 6 12 18 22 4 10 24 23 10 11 25 24 11 17 26 25 17 8 27 26 8 6 28 27 6 4 23 28 12 6 30 29 6 8 31 30 8 5 32 31 5 13 33 32 13 12 29 33 16 5 35 34 5 8 36 35 8 17 37 36 17 16 34 37 10 1 39 38 1 9 40 39 9 11 41 40 11 10 38 41 14 12 43 42 12 13 44 43 13 2 45 44 2 7 46 45 7 14 42 46 14 7 48 47 7 0 49 48 0 15 50 49 15 14 47 50 3 16 52 51 16 17 53 52 17 11 54 53 11 9 55 54 9 3 51 55 
</DataArray>
<DataArray type="Int32" Name="offsets" format="ascii">
4 8 12 16 20 24 28 32 36 40 44 48 52 56 60 64 68 72 76 80 84 88 92 96 100 104 108 112 116 120 124 128 132 136 140 144 148 152 
</DataArray>
<DataArray type="UInt8" Name="types" format="ascii">
7 7 7 7 7 7 7 7 7 7 7 7 7 7 7 7 7 7 7 7 7 7 7 7 7 7 7 7 7 7 7 7 7 7 7 7 7 7 
</DataArray>
</Cells>
<CellData Scalars="wall variable 0">
<DataArray type="Float64" Name="wall length" format="ascii">
0.0618302 1.10224 0.574367 1.05778 0.524581 0.54138 1.13251 0.0537527 0.490604 0.128852 1.05778 0.524581 0.128852 0.949961 0.566965 1.08104 0.614958 0.949961 0.490604 1.0655 0.536832 1.05266 0.558282 1.13251 0.0618302 1.08104 0.508103 1.04301 0.512659 0.512659 1.04112 0.502416 1.10224 0.458647 1.0655 0.0537527 0.558282 1.03298 
</DataArray>
<DataArray type="Float64" Name="wall variable 0" format="ascii">
0 0 0 0 0 0 0 0 0 0 0 0 0 0 0 0 0 0 0 0 0 0 0 0 0 0 0 0 0 0 0 0 0 0 0 0 0 0 
</DataArray>
<DataArray type="Float64" Name="wall variable 1" format="ascii">
0 0 0 0 0 0 0 0 0 0 0 0 0 0 0 0 0 0 0 0 0 0 0 0 0 0 0 0 0 0 0 0 0 0 0 0 0 0 
</DataArray>
</CellData>
</Piece>
</UnstructuredGrid>
</VTKFile>
