<VTKFile type="UnstructuredGrid" version="0.1">
<UnstructuredGrid>
<Piece  NumberOfPoints="      56" NumberOfCells="      38">
<Points>
<DataArray type="Float64" NumberOfComponents="3" format="ascii">
-1.19297 -1.1596 0 
1.19495 -1.15081 0 
-1.18429 1.12996 0 
1.19688 1.1408 0 
-2.63836e-05 -1.17113 0 
0.00764949 1.13815 0 
-0.0562299 -0.00102775 0 
-1.26347 -0.0159249 0 
0.0648726 0.0881254 0 
1.27292 0.00637343 0 
0.611444 -1.21669 0 
0.670827 0.00843942 0 
-0.65379 0.0172059 0 
-0.63176 1.18599 0 
-0.710947 -0.0233335 0 
-0.647508 -1.21372 0 
0.698539 1.19098 0 
0.622912 0.0462048 0 
-0.62407 -0.0436897 0.0
-0.675512 -0.0801751 0.0
-0.618416 -1.15152 0.0
-0.0356829 -1.11319 0.0
-0.0862661 -0.0601 0.0
0.0307496 -1.1088 0.0
0.581073 -1.1498 0.0
0.634518 -0.0471889 0.0
0.591394 -0.0132 0.0
0.0891587 0.0245286 0.0
-0.0198336 -0.0557093 0.0
-0.618984 0.073114 0.0
-0.08118 0.0567038 0.0
0.0278123 0.136942 0.0
-0.0236885 1.08196 0.0
-0.599157 1.12502 0.0
0.663995 1.13541 0.0
0.0421939 1.08786 0.0
0.0936948 0.142837 0.0
0.59593 0.105109 0.0
0.643788 -1.15348 0.0
1.16894 -1.09418 0.0
1.23912 -0.0527184 0.0
0.697233 -0.050859 0.0
-0.733019 0.0350054 0.0
-0.681577 0.0714908 0.0
-0.66175 1.1234 0.0
-1.15903 1.07297 0.0
-1.23029 0.0416731 0.0
-0.73505 -0.0811519 0.0
-1.23232 -0.0744842 0.0
-1.16887 -1.10379 0.0
-0.677954 -1.1525 0.0
1.17173 1.08289 0.0
0.723219 1.12805 0.0
0.655154 0.0977554 0.0
0.698278 0.0637665 0.0
1.24016 0.0619071 0.0
</DataArray>
</Points>
<Cells>
<DataArray type="Int32" Name="connectivity" format="ascii">
12 14 19 18 14 15 20 19 15 4 21 20 4 6 22 21 6 12 18 22 4 10 24 23 10 11 25 24 11 17 26 25 17 8 27 26 8 6 28 27 6 4 23 28 12 6 30 29 6 8 31 30 8 5 32 31 5 13 33 32 13 12 29 33 16 5 35 34 5 8 36 35 8 17 37 36 17 16 34 37 10 1 39 38 1 9 40 39 9 11 41 40 11 10 38 41 14 12 43 42 12 13 44 43 13 2 45 44 2 7 46 45 7 14 42 46 14 7 48 47 7 0 49 48 0 15 50 49 15 14 47 50 3 16 52 51 16 17 53 52 17 11 54 53 11 9 55 54 9 3 51 55 
</DataArray>
<DataArray type="Int32" Name="offsets" format="ascii">
4 8 12 16 20 24 28 32 36 40 44 48 52 56 60 64 68 72 76 80 84 88 92 96 100 104 108 112 116 120 124 128 132 136 140 144 148 152 
</DataArray>
<DataArray type="UInt8" Name="types" format="ascii">
7 7 7 7 7 7 7 7 7 7 7 7 7 7 7 7 7 7 7 7 7 7 7 7 7 7 7 7 7 7 7 7 7 7 7 7 7 7 
</DataArray>
</Cells>
<CellData Scalars="wall variable 0">
<DataArray type="Float64" Name="wall length" format="ascii">
0.059057 1.07192 0.549573 1.02033 0.5001 0.51747 1.10068 0.0513095 0.467528 0.121619 1.02033 0.5001 0.121619 0.91652 0.54224 1.05135 0.58905 0.91652 0.467528 1.03773 0.520244 1.01726 0.543887 1.10068 0.059057 1.05135 0.492525 1.0081 0.499534 0.499534 1.00654 0.487379 1.07192 0.44474 1.03773 0.0513095 0.543887 0.998602 
</DataArray>
<DataArray type="Float64" Name="wall variable 0" format="ascii">
0 0 0 0 0 0 0 0 0 0 0 0 0 0 0 0 0 0 0 0 0 0 0 0 0 0 0 0 0 0 0 0 0 0 0 0 0 0 
</DataArray>
<DataArray type="Float64" Name="wall variable 1" format="ascii">
0 0 0 0 0 0 0 0 0 0 0 0 0 0 0 0 0 0 0 0 0 0 0 0 0 0 0 0 0 0 0 0 0 0 0 0 0 0 
</DataArray>
</CellData>
</Piece>
</UnstructuredGrid>
</VTKFile>
