<VTKFile type="UnstructuredGrid" version="0.1">
<UnstructuredGrid>
<Piece  NumberOfPoints="      14" NumberOfCells="       8">
<Points>
<DataArray type="Float64" NumberOfComponents="3" format="ascii">
-0.675793 -0.675883 0 
0.675795 -0.675884 0 
-0.675795 0.675884 0 
0.675793 0.675883 0 
0.00207446 -0.676239 0 
-0.00207446 0.676239 0 
-0.642 -0.608364 0.0
-0.0319196 -0.608684 0.0
-0.0356536 0.608546 0.0
-0.642002 0.608227 0.0
0.0356536 -0.608546 0.0
0.642002 -0.608227 0.0
0.642 0.608364 0.0
0.0319196 0.608684 0.0
</DataArray>
</Points>
<Cells>
<DataArray type="Int32" Name="connectivity" format="ascii">
0 4 7 6 4 5 8 7 5 2 9 8 2 0 6 9 4 1 11 10 1 3 12 11 3 5 13 12 5 4 10 13 
</DataArray>
<DataArray type="Int32" Name="offsets" format="ascii">
4 8 12 16 20 24 28 32 
</DataArray>
<DataArray type="UInt8" Name="types" format="ascii">
7 7 7 7 7 7 7 7 
</DataArray>
</Cells>
<CellData Scalars="wall variable 0">
<DataArray type="Float64" Name="wall length" format="ascii">
0.61933 1.23572 0.615541 1.23499 0.615541 1.23499 0.61933 1.23572 
</DataArray>
<DataArray type="Float64" Name="wall variable 0" format="ascii">
0 0 0 0 0 0 0 0 
</DataArray>
<DataArray type="Float64" Name="wall variable 1" format="ascii">
0 0 0 0 0 0 0 0 
</DataArray>
</CellData>
</Piece>
</UnstructuredGrid>
</VTKFile>
