<VTKFile type="UnstructuredGrid" version="0.1">
<UnstructuredGrid>
<Piece  NumberOfPoints="      56" NumberOfCells="      38">
<Points>
<DataArray type="Float64" NumberOfComponents="3" format="ascii">
-1.07781 -1.05885 0 
1.08186 -1.05064 0 
-1.07152 1.0345 0 
1.08073 1.04355 0 
0.0028143 -1.06254 0 
0.00420064 1.03523 0 
-0.0465961 0.000678355 0 
-1.14197 -0.0127181 0 
0.053942 0.0808886 0 
1.15149 0.00719621 0 
0.544701 -1.11391 0 
0.589281 0.00851762 0 
-0.571189 0.0129206 0 
-0.562691 1.08438 0 
-0.626256 -0.0145692 0 
-0.573406 -1.10378 0 
0.620475 1.07584 0 
0.541951 0.0333024 0 
-0.545397 -0.042197 0.0
-0.594958 -0.0669378 0.0
-0.547393 -1.04722 0.0
-0.0287944 -1.01011 0.0
-0.0732637 -0.053215 0.0
0.0298686 -1.00653 0.0
0.517566 -1.05276 0.0
0.557688 -0.0425772 0.0
0.515092 -0.0202709 0.0
0.0758835 0.0225567 0.0
-0.0146007 -0.0496326 0.0
-0.541216 0.0643203 0.0
-0.0690826 0.0533023 0.0
0.0214017 0.125492 0.0
-0.0233655 0.984401 0.0
-0.533568 1.02863 0.0
0.589379 1.0258 0.0
0.0347325 0.989252 0.0
0.0794997 0.130342 0.0
0.518708 0.0875148 0.0
0.57416 -1.05579 0.0
1.0576 -0.998841 0.0
1.12027 -0.0467886 0.0
0.614283 -0.0455994 0.0
-0.647162 0.0381946 0.0
-0.597602 0.0629355 0.0
-0.589953 1.02725 0.0
-1.0479 0.982361 0.0
-1.1113 0.0398606 0.0
-0.648956 -0.0676291 0.0
-1.1131 -0.0659632 0.0
-1.05536 -1.00748 0.0
-0.601391 -1.04792 0.0
1.05734 0.990159 0.0
0.643116 1.01923 0.0
0.572444 0.0809407 0.0
0.615041 0.0586343 0.0
1.12103 0.0574451 0.0
</DataArray>
</Points>
<Cells>
<DataArray type="Int32" Name="connectivity" format="ascii">
12 14 19 18 14 15 20 19 15 4 21 20 4 6 22 21 6 12 18 22 4 10 24 23 10 11 25 24 11 17 26 25 17 8 27 26 8 6 28 27 6 4 23 28 12 6 30 29 6 8 31 30 8 5 32 31 5 13 33 32 13 12 29 33 16 5 35 34 5 8 36 35 8 17 37 36 17 16 34 37 10 1 39 38 1 9 40 39 9 11 41 40 11 10 38 41 14 12 43 42 12 13 44 43 13 2 45 44 2 7 46 45 7 14 42 46 14 7 48 47 7 0 49 48 0 15 50 49 15 14 47 50 3 16 52 51 16 17 53 52 17 11 54 53 11 9 55 54 9 3 51 55 
</DataArray>
<DataArray type="Int32" Name="offsets" format="ascii">
4 8 12 16 20 24 28 32 36 40 44 48 52 56 60 64 68 72 76 80 84 88 92 96 100 104 108 112 116 120 124 128 132 136 140 144 148 152 
</DataArray>
<DataArray type="UInt8" Name="types" format="ascii">
7 7 7 7 7 7 7 7 7 7 7 7 7 7 7 7 7 7 7 7 7 7 7 7 7 7 7 7 7 7 7 7 7 7 7 7 7 7 
</DataArray>
</Cells>
<CellData Scalars="wall variable 0">
<DataArray type="Float64" Name="wall length" format="ascii">
0.0531607 1.00981 0.494465 0.935545 0.446852 0.464474 1.03532 0.046141 0.417467 0.10609 0.935545 0.446852 0.10609 0.84073 0.487654 0.990165 0.531518 0.84073 0.417467 0.983378 0.482337 0.93722 0.510821 1.03532 0.0531607 0.990165 0.457142 0.929369 0.469544 0.469544 0.928324 0.452884 1.00981 0.413158 0.983378 0.046141 0.510821 0.921293 
</DataArray>
<DataArray type="Float64" Name="wall variable 0" format="ascii">
0 0 0 0 0 0 0 0 0 0 0 0 0 0 0 0 0 0 0 0 0 0 0 0 0 0 0 0 0 0 0 0 0 0 0 0 0 0 
</DataArray>
<DataArray type="Float64" Name="wall variable 1" format="ascii">
0 0 0 0 0 0 0 0 0 0 0 0 0 0 0 0 0 0 0 0 0 0 0 0 0 0 0 0 0 0 0 0 0 0 0 0 0 0 
</DataArray>
</CellData>
</Piece>
</UnstructuredGrid>
</VTKFile>
