<VTKFile type="UnstructuredGrid" version="0.1">
<UnstructuredGrid>
<Piece  NumberOfPoints="      14" NumberOfCells="       8">
<Points>
<DataArray type="Float64" NumberOfComponents="3" format="ascii">
-0.575143 -0.575175 0 
0.575144 -0.575176 0 
-0.575144 0.575176 0 
0.575143 0.575175 0 
0.0017652 -0.575544 0 
-0.0017652 0.575544 0 
-0.546383 -0.517716 0.0
-0.0271653 -0.518049 0.0
-0.0303427 0.517931 0.0
-0.546384 0.517599 0.0
0.0303427 -0.517931 0.0
0.546384 -0.517599 0.0
0.546383 0.517716 0.0
0.0271653 0.518049 0.0
</DataArray>
</Points>
<Cells>
<DataArray type="Int32" Name="connectivity" format="ascii">
0 4 7 6 4 5 8 7 5 2 9 8 2 0 6 9 4 1 11 10 1 3 12 11 3 5 13 12 5 4 10 13 
</DataArray>
<DataArray type="Int32" Name="offsets" format="ascii">
4 8 12 16 20 24 28 32 
</DataArray>
<DataArray type="UInt8" Name="types" format="ascii">
7 7 7 7 7 7 7 7 
</DataArray>
</Cells>
<CellData Scalars="wall variable 0">
<DataArray type="Float64" Name="wall length" format="ascii">
0.532748 1.06303 0.529488 1.06226 0.529488 1.06226 0.532748 1.06303 
</DataArray>
<DataArray type="Float64" Name="wall variable 0" format="ascii">
0 0 0 0 0 0 0 0 
</DataArray>
<DataArray type="Float64" Name="wall variable 1" format="ascii">
0 0 0 0 0 0 0 0 
</DataArray>
</CellData>
</Piece>
</UnstructuredGrid>
</VTKFile>
