<VTKFile type="UnstructuredGrid" version="0.1">
<UnstructuredGrid>
<Piece  NumberOfPoints="     448" NumberOfCells="     328">
<Points>
<DataArray type="Float64" NumberOfComponents="3" format="ascii">
-3.11765 -2.79424 0 
3.09242 -2.78101 0 
-3.07178 2.75662 0 
3.1025 2.79262 0 
-0.0545077 -2.97533 0 
0.0439336 2.93379 0 
-0.219651 -0.0666546 0 
-3.3604 -0.037639 0 
0.228161 0.35895 0 
3.38115 0.05843 0 
1.81965 -2.93388 0 
2.20615 0.0366303 0 
-2.13076 0.0923816 0 
-1.88065 2.89743 0 
-2.29019 -0.120084 0 
-1.96434 -2.93442 0 
2.03747 2.91354 0 
2.07377 0.241407 0 
-0.0070323 -1.68956 0 
2.0224 -1.6575 0 
-2.10935 -1.79165 0 
-0.174237 -1.84404 0 
0.00687037 1.8066 0 
-2.03681 1.73747 0 
0.153314 1.93478 0 
2.0522 1.87896 0 
2.14547 -1.51662 0 
3.32433 -1.62241 0 
-2.1504 1.59719 0 
-3.3052 1.59008 0 
3.35017 1.5899 0 
2.22007 1.65633 0 
-2.23532 -1.65425 0 
-3.32757 -1.67375 0 
1.03246 -1.63532 0 
1.08663 0.210469 0 
-1.25078 -1.74689 0 
-1.1954 -0.0233762 0 
-1.02671 1.74133 0 
-1.06625 0.0698295 0 
1.1824 0.28183 0 
1.17476 1.8729 0 
0.940073 -1.70792 0 
0.946475 -2.99549 0 
-0.935784 1.81081 0 
-0.979955 2.96368 0 
-1.10702 -3.00489 0 
-1.10576 -1.85108 0 
1.09724 2.97434 0 
1.08327 1.93491 0 
-2.23302 0.799617 0 
-3.39561 0.760536 0 
3.43179 0.792477 0 
2.24879 0.894327 0 
3.4072 -0.775544 0 
2.22935 -0.783479 0 
-0.0610662 -0.741192 0 
1.04143 -0.680646 0 
2.08839 -2.20836 0 
3.2751 -2.35229 0 
2.19332 -0.707381 0 
1.10083 -0.767156 0 
-2.32388 -0.895917 0 
-3.4062 -0.883714 0 
0.0786601 0.953077 0 
-1.02767 0.880801 0 
-0.145379 -0.940675 0 
-1.20693 -0.977542 0 
-1.0782 0.959986 0 
-2.17898 0.925406 0 
-2.29034 -0.824129 0 
-1.27004 -0.874865 0 
-2.1031 2.1944 0 
-3.25308 2.3328 0 
0.133194 1.10557 0 
1.15486 1.17911 0 
3.29519 2.31743 0 
2.15436 2.22388 0 
-3.28495 -2.38033 0 
-2.16471 -2.24218 0 
1.20383 1.09439 0 
2.20167 1.07831 0 
0.974512 -2.27156 0 
1.99831 -2.37792 0 
-0.0812302 -2.40565 0 
0.935246 -2.34367 0 
-0.98011 2.30592 0 
-2.0262 2.38625 0 
0.0782543 2.43427 0 
-0.956391 2.37278 0 
-2.10211 -2.43043 0 
-1.12685 -2.33035 0 
-0.0975607 -2.46432 0 
-1.10163 -2.46671 0 
0.434781 -0.708842 0 
0.493341 0.302967 0 
0.495262 -0.715592 0 
0.508258 -1.69837 0 
1.62409 -0.734581 0 
1.62034 0.255008 0 
2.11626 2.45361 0 
1.09655 2.38572 0 
-0.427552 0.919112 0 
-0.472948 -0.0233942 0 
-0.728471 -0.961544 0 
-0.664586 0.00390651 0 
-2.76609 0.78232 0 
-2.783 -0.0815194 0 
-1.58437 0.944546 0 
-1.62595 0.0307271 0 
0.0893984 2.38614 0 
1.09478 2.49505 0 
-0.656434 -0.95993 0 
-0.637896 -1.848 0 
1.57199 -0.738704 0 
1.63983 -1.64934 0 
-0.48757 0.915487 0 
-0.507166 1.8091 0 
2.75067 0.0467379 0 
2.77766 0.84887 0 
-2.23713 -0.148544 0.0
-2.23727 -0.782185 0.0
-1.319 -0.827847 0.0
-1.25182 -0.0615067 0.0
-1.63931 -0.0128137 0.0
-2.09364 0.0426753 0.0
-0.043492 -2.48572 0.0
-0.00474425 -2.94563 0.0
0.89614 -2.96377 0.0
0.886034 -2.37714 0.0
-0.0287945 -2.43292 0.0
0.0544255 0.904957 0.0
-0.401165 0.874388 0.0
-0.442022 0.0261329 0.0
-0.214054 -0.0128015 0.0
0.188977 0.370243 0.0
0.188838 1.06706 0.0
0.139758 0.929816 0.0
0.274309 0.395101 0.0
0.512971 0.344717 0.0
1.04693 0.261469 0.0
1.13312 0.325693 0.0
1.15241 1.05699 0.0
1.10834 1.13325 0.0
2.04939 -2.39683 0.0
1.88859 -2.8972 0.0
3.03409 -2.75962 0.0
3.19849 -2.37377 0.0
2.13046 -2.24423 0.0
-2.25743 0.753513 0.0
-2.73719 0.737946 0.0
-2.75241 -0.0395093 0.0
-2.30888 -0.0742174 0.0
-2.16539 0.117002 0.0
-2.34588 -0.790327 0.0
-2.34574 -0.156686 0.0
-2.78926 -0.121978 0.0
-3.30893 -0.0824857 0.0
-3.35015 -0.843953 0.0
-2.37606 -0.854936 0.0
2.23099 0.0776956 0.0
2.72106 0.0867924 0.0
2.74535 0.808711 0.0
2.26937 0.849623 0.0
2.11185 0.261994 0.0
0.466824 -0.763639 0.0
0.412391 -0.757563 0.0
-0.0338715 -0.786678 0.0
-0.109753 -0.966213 0.0
0.014759 -1.64021 0.0
0.47852 -1.64814 0.0
-2.1121 -2.22578 0.0
-2.05576 -2.39521 0.0
-1.17803 -2.30514 0.0
-1.15905 -1.87379 0.0
-1.28957 -1.78002 0.0
-2.06228 -1.8203 0.0
0.0965835 1.95213 0.0
0.0390599 2.35836 0.0
0.0290302 2.40168 0.0
-0.90215 2.34633 0.0
-0.923497 2.28616 0.0
-0.883604 1.84056 0.0
-0.497848 1.83902 0.0
-0.0352154 1.83677 0.0
0.142729 2.36677 0.0
0.200252 1.96054 0.0
1.03721 1.96065 0.0
1.04917 2.36639 0.0
1.04757 2.46478 0.0
3.27095 -1.57775 0.0
3.34554 -0.815572 0.0
2.28547 -0.822714 0.0
2.20998 -1.48254 0.0
-2.10312 1.7564 0.0
-2.16278 2.16764 0.0
-3.19776 2.2922 0.0
-3.24467 1.62375 0.0
-2.20536 1.63015 0.0
3.28967 1.6256 0.0
3.24018 2.28038 0.0
2.21344 2.19619 0.0
2.12149 1.88575 0.0
2.27257 1.68539 0.0
-3.21483 -2.40081 0.0
-3.06426 -2.77333 0.0
-2.02629 -2.8995 0.0
-2.15028 -2.44591 0.0
-2.20661 -2.27648 0.0
1.65101 -0.777031 0.0
1.60412 -0.780742 0.0
1.66518 -1.60032 0.0
2.00949 -1.60766 0.0
2.12025 -1.48086 0.0
2.19575 -0.82104 0.0
2.16332 -0.752551 0.0
-0.166895 -0.987143 0.0
-0.626844 -1.00447 0.0
-0.610161 -1.80374 0.0
-0.192868 -1.80017 0.0
-0.0423833 -1.66114 0.0
-1.13101 0.997899 0.0
-1.08467 1.70111 0.0
-1.99375 1.69764 0.0
-2.09599 1.57138 0.0
-2.12171 0.966777 0.0
-1.58656 0.984003 0.0
1.25225 1.05315 0.0
1.23297 0.321852 0.0
1.62712 0.297712 0.0
2.0352 0.285471 0.0
2.19272 0.873099 0.0
2.15031 1.03868 0.0
0.997916 -1.73593 0.0
1.02891 -2.24321 0.0
1.95033 -2.33893 0.0
2.0314 -2.18632 0.0
1.97201 -1.69055 0.0
1.6277 -1.68321 0.0
1.08106 -1.67059 0.0
-0.995022 1.83413 0.0
-1.03492 2.27973 0.0
-1.97639 2.35202 0.0
-2.0456 2.17936 0.0
-1.98594 1.76812 0.0
-1.07686 1.7716 0.0
-0.108498 -2.9508 0.0
-0.147246 -2.49088 0.0
-1.05091 -2.49304 0.0
-1.05576 -2.9774 0.0
2.0613 2.47602 0.0
1.99039 2.88995 0.0
1.14419 2.94468 0.0
1.14197 2.51331 0.0
1.14356 2.41492 0.0
-2.2862 0.838188 0.0
-2.23757 0.951397 0.0
-2.21185 1.556 0.0
-3.25116 1.54961 0.0
-3.33253 0.803015 0.0
-2.76596 0.82262 0.0
3.3693 0.83621 0.0
3.29584 1.55389 0.0
2.27875 1.61368 0.0
2.26219 1.09346 0.0
2.3046 0.927875 0.0
2.78058 0.886963 0.0
3.3464 -0.734768 0.0
3.32296 0.0158089 0.0
2.75552 0.00528604 0.0
2.26545 -0.00381082 0.0
2.25391 -0.673421 0.0
2.28633 -0.74191 0.0
-0.0374815 -0.688694 0.0
0.408781 -0.659579 0.0
0.461485 0.25105 0.0
0.222823 0.301434 0.0
-0.180208 -0.0816099 0.0
2.08877 -1.68378 0.0
2.14816 -2.17955 0.0
3.2162 -2.30909 0.0
3.2605 -1.65219 0.0
2.19953 -1.55698 0.0
1.65201 -0.685597 0.0
2.16431 -0.661117 0.0
2.17586 0.00849359 0.0
2.05672 0.192792 0.0
1.64864 0.205034 0.0
-2.29448 -1.6166 0.0
-2.37418 -0.934096 0.0
-3.34827 -0.923114 0.0
-3.2775 -1.63415 0.0
-0.459973 0.959868 0.0
-0.405957 0.96313 0.0
0.0496336 0.993699 0.0
0.0987138 1.13094 0.0
-0.0149771 1.76187 0.0
-0.47761 1.76412 0.0
-0.632612 -0.915676 0.0
-0.172663 -0.898345 0.0
-0.0967815 -0.718811 0.0
-0.239508 -0.111727 0.0
-0.467475 -0.072793 0.0
-0.63995 -0.0482223 0.0
-0.697446 -0.917128 0.0
-1.10298 0.911862 0.0
-1.55854 0.897966 0.0
-1.59596 0.075529 0.0
-1.20846 0.0268361 0.0
-1.09223 0.110721 0.0
-1.05751 0.840596 0.0
-2.23719 -0.871502 0.0
-2.26737 -0.93611 0.0
-2.18767 -1.61861 0.0
-2.07429 -1.74227 0.0
-1.30159 -1.70198 0.0
-1.26212 -1.00957 0.0
-1.31892 -0.917164 0.0
-2.1453 2.22921 0.0
-2.07609 2.40188 0.0
-1.9451 2.86194 0.0
-3.01712 2.73521 0.0
-3.18029 2.35378 0.0
0.0669091 1.7802 0.0
0.1806 1.14927 0.0
1.1001 1.21546 0.0
1.11801 1.83987 0.0
1.03566 1.89567 0.0
0.198708 1.89556 0.0
3.22718 2.34133 0.0
3.05376 2.769 0.0
2.09523 2.87783 0.0
2.16614 2.46389 0.0
2.20043 2.25714 0.0
-3.2692 -1.70504 0.0
-3.23084 -2.34096 0.0
-2.22262 -2.21662 0.0
-2.1728 -1.81114 0.0
-2.28618 -1.68749 0.0
1.20753 1.20869 0.0
1.2516 1.13244 0.0
2.14966 1.11797 0.0
2.16622 1.63819 0.0
2.01514 1.83855 0.0
1.22544 1.8331 0.0
1.01769 -2.30763 0.0
0.982348 -2.37253 0.0
0.992455 -2.95916 0.0
1.77831 -2.90371 0.0
1.93911 -2.40335 0.0
-0.116137 -1.86333 0.0
-0.0324301 -2.36878 0.0
0.882398 -2.313 0.0
0.917738 -2.24811 0.0
0.886743 -1.74083 0.0
0.498109 -1.73223 0.0
0.034348 -1.7243 0.0
-1.02621 2.33822 0.0
-1.00487 2.39839 0.0
-1.02607 2.9302 0.0
-1.8367 2.87058 0.0
-1.96769 2.41051 0.0
0.0236447 2.45837 0.0
-0.00724396 2.90793 0.0
-0.928744 2.93484 0.0
-0.907536 2.40302 0.0
-2.04675 -2.45402 0.0
-1.92276 -2.90761 0.0
-1.15117 -2.97103 0.0
-1.14632 -2.48667 0.0
-1.16902 -2.36395 0.0
-0.149696 -2.4341 0.0
-0.134999 -2.38129 0.0
-0.218705 -1.87584 0.0
-0.635999 -1.87941 0.0
-1.05708 -1.88218 0.0
-1.07606 -2.31353 0.0
-1.05336 -2.43625 0.0
0.467016 -0.660157 0.0
0.521449 -0.666233 0.0
1.013 -0.634781 0.0
1.05368 0.167223 0.0
0.51972 0.250471 0.0
1.01573 -0.731173 0.0
0.524181 -0.762624 0.0
0.535877 -1.64713 0.0
0.924511 -1.65572 0.0
1.00766 -1.59038 0.0
1.06919 -0.809031 0.0
1.54903 -0.689857 0.0
1.59592 -0.686147 0.0
1.59256 0.204483 0.0
1.19841 0.228623 0.0
1.11222 0.164398 0.0
1.07153 -0.637606 0.0
1.12499 -0.715464 0.0
2.10045 2.21675 0.0
2.06615 2.4235 0.0
1.14842 2.3624 0.0
1.13646 1.95667 0.0
1.21881 1.90086 0.0
2.0085 1.90631 0.0
-0.458909 0.873266 0.0
-0.512925 0.870004 0.0
-0.999018 0.838786 0.0
-1.03374 0.108912 0.0
-0.67224 0.0495812 0.0
-0.499765 0.0250106 0.0
-1.18275 -0.926618 0.0
-0.752131 -0.912219 0.0
-0.694634 -0.0433139 0.0
-1.05614 0.0160168 0.0
-1.17237 -0.0678684 0.0
-1.23955 -0.834208 0.0
-2.79671 0.74028 0.0
-3.36328 0.720674 0.0
-3.33159 0.00231655 0.0
-2.81193 -0.0371758 0.0
-1.61504 0.901578 0.0
-2.15019 0.884352 0.0
-2.19882 0.771142 0.0
-2.10679 0.13463 0.0
-1.65246 0.0791408 0.0
0.127175 2.46064 0.0
0.137205 2.41732 0.0
1.04205 2.51533 0.0
1.04426 2.9467 0.0
0.0962864 2.9102 0.0
-0.684256 -1.0051 0.0
-0.74909 -1.00655 0.0
-1.1797 -1.02095 0.0
-1.21917 -1.71336 0.0
-1.08865 -1.80713 0.0
-0.667573 -1.80436 0.0
1.54864 -0.786466 0.0
1.1246 -0.812073 0.0
1.06306 -1.59342 0.0
1.6097 -1.60604 0.0
-1.00237 0.926871 0.0
-0.516279 0.958088 0.0
-0.533916 1.76234 0.0
-0.919672 1.76387 0.0
-1.00151 1.70135 0.0
-1.04785 0.998138 0.0
2.78368 0.0860127 0.0
3.35112 0.0965356 0.0
3.39669 0.757178 0.0
2.80797 0.807931 0.0
</DataArray>
</Points>
<Cells>
<DataArray type="Int32" Name="connectivity" format="ascii">
14 70 121 120 70 71 122 121 71 37 123 122 37 109 124 123 109 12 125 124 12 14 120 125 92 4 127 126 4 43 128 127 43 85 129 128 85 84 130 129 84 92 126 130 64 102 132 131 102 103 133 132 103 6 134 133 6 8 135 134 8 64 131 135 74 64 137 136 64 8 138 137 8 95 139 138 95 35 140 139 35 40 141 140 40 80 142 141 80 75 143 142 75 74 136 143 83 10 145 144 10 1 146 145 1 59 147 146 59 58 148 147 58 83 144 148 50 106 150 149 106 107 151 150 107 14 152 151 14 12 153 152 12 50 149 153 70 14 155 154 14 107 156 155 107 7 157 156 7 63 158 157 63 62 159 158 62 70 154 159 11 118 161 160 118 119 162 161 119 53 163 162 53 17 164 163 17 11 160 164 96 94 166 165 94 56 167 166 56 66 168 167 66 18 169 168 18 97 170 169 97 96 165 170 79 90 172 171 90 91 173 172 91 47 174 173 47 36 175 174 36 20 176 175 20 79 171 176 24 110 178 177 110 88 179 178 88 89 180 179 89 86 181 180 86 44 182 181 44 117 183 182 117 22 184 183 22 24 177 184 110 24 186 185 24 49 187 186 49 101 188 187 101 111 189 188 111 110 185 189 27 54 191 190 54 55 192 191 55 26 193 192 26 27 190 193 23 72 195 194 72 73 196 195 73 29 197 196 29 28 198 197 28 23 194 198 30 76 200 199 76 77 201 200 77 25 202 201 25 31 203 202 31 30 199 203 78 0 205 204 0 15 206 205 15 90 207 206 90 79 208 207 79 78 204 208 98 114 210 209 114 115 211 210 115 19 212 211 19 26 213 212 26 55 214 213 55 60 215 214 60 98 209 215 66 112 217 216 112 113 218 217 113 21 219 218 21 18 220 219 18 66 216 220 68 38 222 221 38 23 223 222 23 28 224 223 28 69 225 224 69 108 226 225 108 68 221 226 80 40 228 227 40 99 229 228 99 17 230 229 17 53 231 230 53 81 232 231 81 80 227 232 42 82 234 233 82 83 235 234 83 58 236 235 58 19 237 236 19 115 238 237 115 34 239 238 34 42 233 239 44 86 241 240 86 87 242 241 87 72 243 242 72 23 244 243 23 38 245 244 38 44 240 245 4 92 247 246 92 93 248 247 93 46 249 248 46 4 246 249 100 16 251 250 16 48 252 251 48 111 253 252 111 101 254 253 101 100 250 254 50 69 256 255 69 28 257 256 28 29 258 257 29 51 259 258 51 106 260 259 106 50 255 260 52 30 262 261 30 31 263 262 31 81 264 263 81 53 265 264 53 119 266 265 119 52 261 266 54 9 268 267 9 118 269 268 118 11 270 269 11 60 271 270 60 55 272 271 55 54 267 272 56 94 274 273 94 95 275 274 95 8 276 275 8 6 277 276 6 56 273 277 19 58 279 278 58 59 280 279 59 27 281 280 27 26 282 281 26 19 278 282 98 60 284 283 60 11 285 284 11 17 286 285 17 99 287 286 99 98 283 287 32 62 289 288 62 63 290 289 63 33 291 290 33 32 288 291 116 102 293 292 102 64 294 293 64 74 295 294 74 22 296 295 22 117 297 296 117 116 292 297 112 66 299 298 66 56 300 299 56 6 301 300 6 103 302 301 103 105 303 302 105 104 304 303 104 112 298 304 68 108 306 305 108 109 307 306 109 37 308 307 37 39 309 308 39 65 310 309 65 68 305 310 70 62 312 311 62 32 313 312 32 20 314 313 20 36 315 314 36 67 316 315 67 71 317 316 71 70 311 317 72 87 319 318 87 13 320 319 13 2 321 320 2 73 322 321 73 72 318 322 22 74 324 323 74 75 325 324 75 41 326 325 41 49 327 326 49 24 328 327 24 22 323 328 76 3 330 329 3 16 331 330 16 100 332 331 100 77 333 332 77 76 329 333 33 78 335 334 78 79 336 335 79 20 337 336 20 32 338 337 32 33 334 338 75 80 340 339 80 81 341 340 81 31 342 341 31 25 343 342 25 41 344 343 41 75 339 344 82 85 346 345 85 43 347 346 43 10 348 347 10 83 349 348 83 82 345 349 21 84 351 350 84 85 352 351 85 82 353 352 82 42 354 353 42 97 355 354 97 18 356 355 18 21 350 356 86 89 358 357 89 45 359 358 45 13 360 359 13 87 361 360 87 86 357 361 88 5 363 362 5 45 364 363 45 89 365 364 89 88 362 365 90 15 367 366 15 46 368 367 46 93 369 368 93 91 370 369 91 90 366 370 92 84 372 371 84 21 373 372 21 113 374 373 113 47 375 374 47 91 376 375 91 93 377 376 93 92 371 377 94 96 379 378 96 57 380 379 57 35 381 380 35 95 382 381 95 94 378 382 57 96 384 383 96 97 385 384 97 42 386 385 42 34 387 386 34 61 388 387 61 57 383 388 114 98 390 389 98 99 391 390 99 40 392 391 40 35 393 392 35 57 394 393 57 61 395 394 61 114 389 395 77 100 397 396 100 101 398 397 101 49 399 398 49 41 400 399 41 25 401 400 25 77 396 401 102 116 403 402 116 65 404 403 65 39 405 404 39 105 406 405 105 103 407 406 103 102 402 407 67 104 409 408 104 105 410 409 105 39 411 410 39 37 412 411 37 71 413 412 71 67 408 413 106 51 415 414 51 7 416 415 7 107 417 416 107 106 414 417 108 69 419 418 69 50 420 419 50 12 421 420 12 109 422 421 109 108 418 422 88 110 424 423 110 111 425 424 111 48 426 425 48 5 427 426 5 88 423 427 112 104 429 428 104 67 430 429 67 36 431 430 36 47 432 431 47 113 433 432 113 112 428 433 114 61 435 434 61 34 436 435 34 115 437 436 115 114 434 437 65 116 439 438 116 117 440 439 117 44 441 440 44 38 442 441 38 68 443 442 68 65 438 443 118 9 445 444 9 52 446 445 52 119 447 446 119 118 444 447 
</DataArray>
<DataArray type="Int32" Name="offsets" format="ascii">
4 8 12 16 20 24 28 32 36 40 44 48 52 56 60 64 68 72 76 80 84 88 92 96 100 104 108 112 116 120 124 128 132 136 140 144 148 152 156 160 164 168 172 176 180 184 188 192 196 200 204 208 212 216 220 224 228 232 236 240 244 248 252 256 260 264 268 272 276 280 284 288 292 296 300 304 308 312 316 320 324 328 332 336 340 344 348 352 356 360 364 368 372 376 380 384 388 392 396 400 404 408 412 416 420 424 428 432 436 440 444 448 452 456 460 464 468 472 476 480 484 488 492 496 500 504 508 512 516 520 524 528 532 536 540 544 548 552 556 560 564 568 572 576 580 584 588 592 596 600 604 608 612 616 620 624 628 632 636 640 644 648 652 656 660 664 668 672 676 680 684 688 692 696 700 704 708 712 716 720 724 728 732 736 740 744 748 752 756 760 764 768 772 776 780 784 788 792 796 800 804 808 812 816 820 824 828 832 836 840 844 848 852 856 860 864 868 872 876 880 884 888 892 896 900 904 908 912 916 920 924 928 932 936 940 944 948 952 956 960 964 968 972 976 980 984 988 992 996 1000 1004 1008 1012 1016 1020 1024 1028 1032 1036 1040 1044 1048 1052 1056 1060 1064 1068 1072 1076 1080 1084 1088 1092 1096 1100 1104 1108 1112 1116 1120 1124 1128 1132 1136 1140 1144 1148 1152 1156 1160 1164 1168 1172 1176 1180 1184 1188 1192 1196 1200 1204 1208 1212 1216 1220 1224 1228 1232 1236 1240 1244 1248 1252 1256 1260 1264 1268 1272 1276 1280 1284 1288 1292 1296 1300 1304 1308 1312 
</DataArray>
<DataArray type="UInt8" Name="types" format="ascii">
7 7 7 7 7 7 7 7 7 7 7 7 7 7 7 7 7 7 7 7 7 7 7 7 7 7 7 7 7 7 7 7 7 7 7 7 7 7 7 7 7 7 7 7 7 7 7 7 7 7 7 7 7 7 7 7 7 7 7 7 7 7 7 7 7 7 7 7 7 7 7 7 7 7 7 7 7 7 7 7 7 7 7 7 7 7 7 7 7 7 7 7 7 7 7 7 7 7 7 7 7 7 7 7 7 7 7 7 7 7 7 7 7 7 7 7 7 7 7 7 7 7 7 7 7 7 7 7 7 7 7 7 7 7 7 7 7 7 7 7 7 7 7 7 7 7 7 7 7 7 7 7 7 7 7 7 7 7 7 7 7 7 7 7 7 7 7 7 7 7 7 7 7 7 7 7 7 7 7 7 7 7 7 7 7 7 7 7 7 7 7 7 7 7 7 7 7 7 7 7 7 7 7 7 7 7 7 7 7 7 7 7 7 7 7 7 7 7 7 7 7 7 7 7 7 7 7 7 7 7 7 7 7 7 7 7 7 7 7 7 7 7 7 7 7 7 7 7 7 7 7 7 7 7 7 7 7 7 7 7 7 7 7 7 7 7 7 7 7 7 7 7 7 7 7 7 7 7 7 7 7 7 7 7 7 7 7 7 7 7 7 7 7 7 7 7 7 7 7 7 7 7 7 7 7 7 7 7 7 7 7 7 7 7 7 7 7 7 7 7 7 7 7 7 7 7 7 7 
</DataArray>
</Cells>
<CellData Scalars="wall variable 0">
<DataArray type="Float64" Name="wall length" format="ascii">
0.545377 0.865914 0.674926 0.337341 0.397444 0.198305 0.453313 0.774191 0.587179 0.913889 0.0510334 0.425077 0.918526 0.195303 0.46265 0.470937 0.123336 0.470937 0.205203 0.457547 0.0857596 0.64695 0.0763633 0.876487 0.514065 1.06914 0.399758 1.08216 0.158486 0.468419 0.850743 0.418629 0.198305 0.547342 0.545377 0.418629 0.500444 0.663756 0.968419 0.0606963 0.465343 0.801883 0.475562 0.521708 0.180419 0.050244 0.410914 0.163785 0.594604 0.392503 0.938198 0.166146 0.918897 0.403416 0.132919 0.672375 0.367252 0.376806 0.0418264 0.961133 0.0606474 0.412182 0.32705 0.392215 0.144153 0.376806 0.719796 0.38767 0.0964719 0.997016 0.674232 1.04337 0.573584 1.02214 0.372461 1.05646 0.608511 0.994667 0.135676 0.597525 1.04647 0.292298 0.213457 0.978078 0.38425 0.97514 0.461657 0.166146 1.03687 0.0435454 0.908798 0.300166 0.140308 0.573584 0.063751 0.479606 0.428784 0.880911 0.357734 0.167845 0.594604 0.626106 0.793994 0.135676 0.525008 0.508192 0.429558 0.64695 0.336694 0.351402 0.521708 0.146537 0.87312 0.461651 0.923138 0.158486 0.446459 0.300166 0.475775 0.0852124 0.412182 0.961231 0.17216 0.372461 0.793994 0.0837431 0.453313 0.938766 0.490021 0.819848 0.41528 0.747074 0.434101 0.0964719 0.985502 0.103324 0.525008 0.994667 0.659017 0.566185 0.468419 0.633343 0.978078 0.455916 0.146537 0.475562 0.589003 0.651557 0.539448 0.465343 0.570824 0.063751 1.04337 0.410914 0.957784 0.205203 0.46265 0.534151 0.446459 1.08216 0.595365 1.02214 0.140308 0.479606 0.570824 0.180419 0.351402 0.948654 0.600432 0.968419 0.629761 0.945452 0.0503921 0.425077 0.123336 0.560661 0.392215 0.892339 0.428784 0.163785 0.534151 0.195303 0.147496 0.94511 0.0604227 0.429558 0.90105 0.337341 0.115038 0.635356 0.0719632 0.0606963 0.600432 0.14058 0.672375 0.61709 0.0922957 0.865914 0.17216 0.469887 1.00228 0.396136 1.05646 0.560661 0.876487 0.562602 0.0825988 0.719796 0.144153 0.441136 0.898937 0.41528 0.19774 1.04647 0.579363 1.03687 0.367252 0.14058 0.945452 0.0763633 0.87312 0.455916 0.213457 0.68845 0.562602 0.0686447 0.587179 0.68471 0.514065 0.923138 0.464271 0.913889 0.0686447 0.461651 0.32895 0.392503 0.167845 0.0606474 0.536624 0.708617 0.469887 0.961231 0.440421 0.794556 0.536624 0.961133 0.461657 0.678739 0.490021 0.120237 0.918897 0.0510334 0.464271 0.357734 0.361307 0.403416 0.120237 0.938766 0.050244 0.452237 0.693638 0.457547 0.957784 0.452237 0.938198 0.32895 0.0852124 0.687545 0.0793698 0.0435454 0.948654 0.336694 0.0857596 0.693638 0.0793698 0.391923 0.19774 0.985502 0.38767 0.0825988 0.68845 0.292298 0.0503921 0.453529 0.635356 0.310442 0.147496 0.918526 0.401617 0.94511 0.310442 0.115038 0.674926 0.0922957 0.566185 0.621505 0.500444 0.850743 0.508192 0.103324 0.547342 0.397444 0.90105 0.0418264 0.997016 0.434101 0.823856 0.440421 0.0604227 0.401617 0.61709 0.132919 0.361307 0.880911 0.391923 0.687545 0.475775 0.908798 0.453529 0.892339 0.32705 0.0837431 0.626106 0.0719632 0.539448 0.572387 0.589003 0.801883 
</DataArray>
<DataArray type="Float64" Name="wall variable 0" format="ascii">
0 0 0 0 0 0 0 0 0 0 0 0 0 0 0 0 0 0 0 0 0 0 0 0 0 0 0 0 0 0 0 0 0 0 0 0 0 0 0 0 0 0 0 0 0 0 0 0 0 0 0 0 0 0 0 0 0 0 0 0 0 0 0 0 0 0 0 0 0 0 0 0 0 0 0 0 0 0 0 0 0 0 0 0 0 0 0 0 0 0 0 0 0 0 0 0 0 0 0 0 0 0 0 0 0 0 0 0 0 0 0 0 0 0 0 0 0 0 0 0 0 0 0 0 0 0 0 0 0 0 0 0 0 0 0 0 0 0 0 0 0 0 0 0 0 0 0 0 0 0 0 0 0 0 0 0 0 0 0 0 0 0 0 0 0 0 0 0 0 0 0 0 0 0 0 0 0 0 0 0 0 0 0 0 0 0 0 0 0 0 0 0 0 0 0 0 0 0 0 0 0 0 0 0 0 0 0 0 0 0 0 0 0 0 0 0 0 0 0 0 0 0 0 0 0 0 0 0 0 0 0 0 0 0 0 0 0 0 0 0 0 0 0 0 0 0 0 0 0 0 0 0 0 0 0 0 0 0 0 0 0 0 0 0 0 0 0 0 0 0 0 0 0 0 0 0 0 0 0 0 0 0 0 0 0 0 0 0 0 0 0 0 0 0 0 0 0 0 0 0 0 0 0 0 0 0 0 0 0 0 0 0 0 0 0 0 0 0 0 0 0 0 0 0 0 0 0 0 
</DataArray>
<DataArray type="Float64" Name="wall variable 1" format="ascii">
0 0 0 0 0 0 0 0 0 0 0 0 0 0 0 0 0 0 0 0 0 0 0 0 0 0 0 0 0 0 0 0 0 0 0 0 0 0 0 0 0 0 0 0 0 0 0 0 0 0 0 0 0 0 0 0 0 0 0 0 0 0 0 0 0 0 0 0 0 0 0 0 0 0 0 0 0 0 0 0 0 0 0 0 0 0 0 0 0 0 0 0 0 0 0 0 0 0 0 0 0 0 0 0 0 0 0 0 0 0 0 0 0 0 0 0 0 0 0 0 0 0 0 0 0 0 0 0 0 0 0 0 0 0 0 0 0 0 0 0 0 0 0 0 0 0 0 0 0 0 0 0 0 0 0 0 0 0 0 0 0 0 0 0 0 0 0 0 0 0 0 0 0 0 0 0 0 0 0 0 0 0 0 0 0 0 0 0 0 0 0 0 0 0 0 0 0 0 0 0 0 0 0 0 0 0 0 0 0 0 0 0 0 0 0 0 0 0 0 0 0 0 0 0 0 0 0 0 0 0 0 0 0 0 0 0 0 0 0 0 0 0 0 0 0 0 0 0 0 0 0 0 0 0 0 0 0 0 0 0 0 0 0 0 0 0 0 0 0 0 0 0 0 0 0 0 0 0 0 0 0 0 0 0 0 0 0 0 0 0 0 0 0 0 0 0 0 0 0 0 0 0 0 0 0 0 0 0 0 0 0 0 0 0 0 0 0 0 0 0 0 0 0 0 0 0 0 0 
</DataArray>
</CellData>
</Piece>
</UnstructuredGrid>
</VTKFile>
