<VTKFile type="UnstructuredGrid" version="0.1">
<UnstructuredGrid>
<Piece  NumberOfPoints="     131" NumberOfCells="      25">
<Points>
<DataArray type="Float64" NumberOfComponents="3" format="ascii">
-1.28128 -1.15553 0.0
-0.765383 -1.14544 0.0
-0.720253 -0.0978718 0.0
-1.2761 -0.0431774 0.0
-1.3683 -0.15594 0.0
-1.35234 -1.07942 0.0
0.640779 -1.20427 0.0
0.101696 -1.20252 0.0
0.0108518 -1.28415 0.0
0.080122 -2.07434 0.0
0.666138 -2.11731 0.0
0.0492332 1.09299 0.0
-0.488749 1.083 0.0
-0.543084 1.05678 0.0
-0.561887 0.0474553 0.0
-0.0766182 -0.00620141 0.0
0.179218 0.219029 0.0
0.740096 0.158565 0.0
0.796181 0.180644 0.0
0.798093 1.15522 0.0
0.73952 1.16882 0.0
0.196566 1.18088 0.0
0.120434 1.10852 0.0
0.250419 0.234556 0.0
1.50353 -1.0783 0.0
1.43346 -1.15339 0.0
1.33417 -2.05525 0.0
2.19081 -1.95811 0.0
2.33767 -1.17521 0.0
-1.34803 0.0361801 0.0
-1.36188 0.44463 0.0
-2.19652 0.433823 0.0
-2.19093 -0.0369127 0.0
-1.44024 -0.076583 0.0
-1.42968 -1.08141 0.0
-1.44564 -0.157926 0.0
-2.19634 -0.118255 0.0
-2.20867 -1.11462 0.0
2.35504 0.0457773 0.0
2.36899 0.969389 0.0
1.56434 0.99771 0.0
1.45807 0.146198 0.0
1.53499 0.0406589 0.0
0.104329 -1.0872 0.0
0.643411 -1.08895 0.0
0.697252 -1.06059 0.0
0.728668 0.0391527 0.0
0.23899 0.115143 0.0
-0.0168462 -0.110087 0.0
-1.20072 -2.07116 0.0
-0.676441 -2.11292 0.0
-0.663677 -1.2848 0.0
-0.755326 -1.25181 0.0
-1.27122 -1.2619 0.0
-0.488059 1.18769 0.0
0.0499234 1.19768 0.0
0.126055 1.27004 0.0
0.0646868 1.97116 0.0
-0.537977 2.0131 0.0
0.761896 1.99789 0.0
0.131704 1.97554 0.0
0.193072 1.27442 0.0
0.736027 1.26236 0.0
1.53648 -0.0645316 0.0
1.51712 -0.976777 0.0
2.35126 -1.07369 0.0
2.35654 -0.0594132 0.0
-1.36379 1.05466 0.0
-1.29833 1.12991 0.0
-1.22774 1.95455 0.0
-2.0337 1.86893 0.0
-2.18012 1.07298 0.0
2.36384 1.0683 0.0
2.21153 1.89436 0.0
1.48567 1.96814 0.0
1.46553 1.22552 0.0
1.55918 1.09662 0.0
-1.34767 -1.25587 0.0
-1.41873 -1.17976 0.0
-2.19773 -1.21298 0.0
-2.06461 -1.97988 0.0
-1.27717 -2.06513 0.0
0.770482 -1.06164 0.0
1.36336 -1.04767 0.0
1.43343 -0.972574 0.0
1.45279 -0.0603291 0.0
1.37588 0.0452101 0.0
0.857983 0.0601826 0.0
0.801898 0.0381039 0.0
-0.695407 -1.15164 0.0
-0.603758 -1.18463 0.0
-0.0595309 -1.18585 0.0
0.0313137 -1.10422 0.0
-0.0898611 -0.127112 0.0
-0.57513 -0.0734557 0.0
-0.650277 -0.10408 0.0
-0.615924 1.05703 0.0
-1.22514 1.03654 0.0
-1.2906 0.961289 0.0
-1.27957 0.480226 0.0
-1.26572 0.071776 0.0
-0.709874 0.0170815 0.0
-0.634727 0.0477055 0.0
0.861851 0.177516 0.0
1.37975 0.162544 0.0
1.48601 1.01406 0.0
1.39236 1.14295 0.0
0.863763 1.15209 0.0
0.760402 -1.17235 0.0
0.706562 -1.2007 0.0
0.731921 -2.11374 0.0
1.25399 -2.06024 0.0
1.35328 -1.15837 0.0
-0.609117 1.15752 0.0
-0.554781 1.18375 0.0
-0.6047 2.00916 0.0
-1.14773 1.96167 0.0
-1.21833 1.13703 0.0
-0.612917 -2.11679 0.0
0.0133445 -2.08008 0.0
-0.0559257 -1.28988 0.0
-0.600153 -1.28866 0.0
1.40812 1.98007 0.0
0.826687 1.99573 0.0
0.800818 1.26019 0.0
0.859391 1.24659 0.0
1.38798 1.23746 0.0
-1.36336 0.499487 0.0
-1.37439 0.980551 0.0
-2.19071 0.998876 0.0
-2.198 0.488681 0.0
</DataArray>
</Points>
<Cells>
<DataArray type="Int32" Name="connectivity" format="ascii">
0 1 2 3 4 5 
6 7 8 9 10 
11 12 13 14 15 16 
17 18 19 20 21 22 23 
24 25 26 27 28 
29 30 31 32 33 
34 35 36 37 
38 39 40 41 42 
43 44 45 46 47 48 
49 50 51 52 53 
54 55 56 57 58 
59 60 61 62 
63 64 65 66 
67 68 69 70 71 
72 73 74 75 76 
77 78 79 80 81 
82 83 84 85 86 87 88 
89 90 91 92 93 94 95 
96 97 98 99 100 101 102 
103 104 105 106 107 
108 109 110 111 112 
113 114 115 116 117 
118 119 120 121 
122 123 124 125 126 
127 128 129 130 
</DataArray>
<DataArray type="Int32" Name="offsets" format="ascii">
6 11 17 24 29 34 38 43 49 54 59 63 67 72 77 82 89 96 103 108 113 118 122 127 131 
</DataArray>
<DataArray type="UInt8" Name="types" format="ascii">
7 7 7 7 7 7 7 7 7 7 7 7 7 7 7 7 7 7 7 7 7 7 7 7 7 
</DataArray>
</Cells>
<CellData Scalars="cell variable 4" Vectors="cell vector">
<DataArray type="Float64" NumberOfComponents="3" Name="cell vector" format="ascii">
0 1 1
0 1 1
0 1 1
0 1 1
0 1 1
0 1 1
0 1 1
0 1 1
0 1 1
0 1 1
0 1 1
0 1 1
0 1 1
0 1 1
0 1 1
0 1 1
0 1 1
0 1 1
0 1 1
0 1 1
0 1 1
0 1 1
0 1 1
0 1 1
0 1 1
</DataArray>
<DataArray type="Float64" Name="cell vector length" format="ascii">
0.0336938 0.0320328 0.0318698 0.0290556 0.067851 0.0314001 0.0599332 0.0626166 0.0337577 0.0312187 0.0299455 0.0283555 0.0624139 0.0624141 0.0600748 0.0608911 0.0331929 0.0333746 0.0312398 0.0282946 0.0328843 0.031763 0.0310163 0.0294702 0.0312399 
</DataArray>
<DataArray type="Float64" Name="cell variable 4" format="ascii">
0 0 0 0 0 0 0 0 0 0 0 0 0 0 0 0 0 0 0 0 0 0 0 0 0 
</DataArray>
<DataArray type="Float64" Name="cell variable 5" format="ascii">
0 0 0 0 0 0 0 0 0 0 0 0 0 0 0 0 0 0 0 0 0 0 0 0 0 
</DataArray>
<DataArray type="Float64" Name="cell variable 6" format="ascii">
0 0 0 0 0 0 0 0 0 0 0 0 0 0 0 0 0 0 0 0 0 0 0 0 0 
</DataArray>
<DataArray type="Float64" Name="cell variable 7" format="ascii">
0 0 0 0 0 0 0 0 0 0 0 0 0 0 0 0 0 0 0 0 0 0 0 0 0 
</DataArray>
<DataArray type="Float64" Name="cell variable 8" format="ascii">
0 0 0 0 0 0 0 0 0 0 0 0 0 0 0 0 0 0 0 0 0 0 0 0 0 
</DataArray>
</CellData>
</Piece>
</UnstructuredGrid>
</VTKFile>
