<VTKFile type="UnstructuredGrid" version="0.1">
<UnstructuredGrid>
<Piece  NumberOfPoints="     100" NumberOfCells="      19">
<Points>
<DataArray type="Float64" NumberOfComponents="3" format="ascii">
-1.01309 -0.866901 0.0
-0.604683 -0.878634 0.0
-0.566331 -0.0232227 0.0
-1.00648 0.0067123 0.0
-1.07743 -0.0755875 0.0
-1.05818 -0.801044 0.0
0.0175666 -0.97052 0.0
0.0634018 -1.64408 0.0
0.929047 -1.64788 0.0
0.995574 -0.871354 0.0
0.525777 -0.890669 0.0
0.072252 -0.900337 0.0
0.0174717 0.891701 0.0
-0.435067 0.872213 0.0
-0.442222 0.0622017 0.0
-0.0751133 0.0375838 0.0
0.103905 0.209363 0.0
0.139797 0.967084 0.0
0.0959001 0.903527 0.0
0.182334 0.221189 0.0
0.553932 0.187905 0.0
1.00182 0.161206 0.0
1.08243 0.828813 0.0
1.02956 0.94068 0.0
1.13507 -0.806674 0.0
1.08669 -0.867961 0.0
1.02017 -1.64449 0.0
1.74324 -1.57166 0.0
1.8621 -0.909964 0.0
-1.0678 0.0910629 0.0
-1.08839 0.783926 0.0
-1.79999 0.81894 0.0
-1.79031 0.036176 0.0
-1.13875 0.0087631 0.0
-1.12272 -0.802648 0.0
-1.14197 -0.0771918 0.0
-1.79354 -0.0497789 0.0
-1.80273 -0.848925 0.0
1.86129 0.069994 0.0
1.87618 0.808853 0.0
1.17291 0.814286 0.0
1.0923 0.14668 0.0
1.15052 0.0698217 0.0
0.0478797 -0.808325 0.0
0.501405 -0.798658 0.0
0.52061 0.0957346 0.0
0.149012 0.129018 0.0
-0.0300068 -0.0427614 0.0
-0.982104 -0.954814 0.0
-0.943095 -1.65838 0.0
-0.0386187 -1.64909 0.0
-0.0844539 -0.975532 0.0
-0.573697 -0.966547 0.0
-0.00963805 0.97495 0.0
0.034259 1.03851 0.0
-0.00469727 1.6409 0.0
-0.903953 1.64868 0.0
-0.946689 0.934312 0.0
-0.462176 0.955462 0.0
0.100118 1.64603 0.0
0.139074 1.04364 0.0
1.02884 1.01724 0.0
1.05812 1.66566 0.0
1.1522 -0.0134222 0.0
1.14507 -0.723655 0.0
1.8721 -0.826944 0.0
1.86298 -0.0132499 0.0
-1.08148 0.866789 0.0
-1.03751 0.928821 0.0
-0.994774 1.64319 0.0
-1.67568 1.57676 0.0
-1.79308 0.901803 0.0
1.8733 0.88999 0.0
1.75814 1.59365 0.0
1.14645 1.65571 0.0
1.11716 1.00729 0.0
1.17003 0.895423 0.0
-1.06964 -0.949469 0.0
-1.11473 -0.883611 0.0
-1.79474 -0.929888 0.0
-1.69683 -1.58296 0.0
-1.03063 -1.65304 0.0
0.557113 -0.80037 0.0
1.02691 -0.781054 0.0
1.07529 -0.719767 0.0
1.08242 -0.00953446 0.0
1.0242 0.0673234 0.0
0.576319 0.0940226 0.0
-0.551097 -0.883629 0.0
-0.0618537 -0.892614 0.0
-0.00716824 -0.822431 0.0
-0.0850547 -0.0568675 0.0
-0.452163 -0.0322496 0.0
-0.512745 -0.0282179 0.0
-0.490905 0.873248 0.0
-0.975418 0.852098 0.0
-1.01938 0.790066 0.0
-0.998788 0.0972029 0.0
-0.558642 0.0672679 0.0
-0.498061 0.0632362 0.0
</DataArray>
</Points>
<Cells>
<DataArray type="Int32" Name="connectivity" format="ascii">
0 1 2 3 4 5 
6 7 8 9 10 11 
12 13 14 15 16 
17 18 19 20 21 22 23 
24 25 26 27 28 
29 30 31 32 33 
34 35 36 37 
38 39 40 41 42 
43 44 45 46 47 
48 49 50 51 52 
53 54 55 56 57 58 
59 60 61 62 
63 64 65 66 
67 68 69 70 71 
72 73 74 75 76 
77 78 79 80 81 
82 83 84 85 86 87 
88 89 90 91 92 93 
94 95 96 97 98 99 
</DataArray>
<DataArray type="Int32" Name="offsets" format="ascii">
6 12 17 24 29 34 38 43 48 53 59 63 67 72 77 82 88 94 100 
</DataArray>
<DataArray type="UInt8" Name="types" format="ascii">
7 7 7 7 7 7 7 7 7 7 7 7 7 7 7 7 7 7 7 
</DataArray>
</Cells>
<CellData Scalars="cell variable 4" Vectors="cell vector">
<DataArray type="Float64" NumberOfComponents="3" Name="cell vector" format="ascii">
0 1 1
0 1 1
0 1 1
0 1 1
0 1 1
0 1 1
0 1 1
0 1 1
0 1 1
0 1 1
0 1 1
0 1 1
0 1 1
0 1 1
0 1 1
0 1 1
0 1 1
0 1 1
0 1 1
</DataArray>
<DataArray type="Float64" Name="cell vector length" format="ascii">
0.0336938 0.0649171 0.0318698 0.0573502 0.067851 0.06264 0.0599332 0.0626166 0.0337577 0.062235 0.0617085 0.0578257 0.0624139 0.0624141 0.0600748 0.0608911 0.0331929 0.0333746 0.0312398 
</DataArray>
<DataArray type="Float64" Name="cell variable 4" format="ascii">
0 0 0 0 0 0 0 0 0 0 0 0 0 0 0 0 0 0 0 
</DataArray>
<DataArray type="Float64" Name="cell variable 5" format="ascii">
0 0 0 0 0 0 0 0 0 0 0 0 0 0 0 0 0 0 0 
</DataArray>
<DataArray type="Float64" Name="cell variable 6" format="ascii">
0 0 0 0 0 0 0 0 0 0 0 0 0 0 0 0 0 0 0 
</DataArray>
<DataArray type="Float64" Name="cell variable 7" format="ascii">
0 0 0 0 0 0 0 0 0 0 0 0 0 0 0 0 0 0 0 
</DataArray>
<DataArray type="Float64" Name="cell variable 8" format="ascii">
0 0 0 0 0 0 0 0 0 0 0 0 0 0 0 0 0 0 0 
</DataArray>
</CellData>
</Piece>
</UnstructuredGrid>
</VTKFile>
