<VTKFile type="UnstructuredGrid" version="0.1">
<UnstructuredGrid>
<Piece  NumberOfPoints="     140" NumberOfCells="     100">
<Points>
<DataArray type="Float64" NumberOfComponents="3" format="ascii">
-1.77533 -1.65827 0 
1.82577 -1.64802 0 
-1.75325 1.65268 0 
1.83697 1.67145 0 
0.0144601 -1.72776 0 
0.0481896 1.72116 0 
-0.0652475 -0.0105634 0 
-1.87766 -0.00635102 0 
0.142619 0.187219 0 
1.95305 0.0309567 0 
1.00518 -1.73047 0 
1.14928 0.0303462 0 
-1.05988 0.0572041 0 
-0.98067 1.72793 0 
-1.1407 -0.0382946 0 
-1.01966 -1.73731 0 
1.14297 1.74182 0 
1.08261 0.119324 0 
0.0269653 -0.887166 0 
1.08454 -0.853137 0 
-1.06794 -0.943076 0 
-0.0392178 -0.965816 0 
0.0404452 0.968809 0 
-1.03267 0.921166 0 
0.093917 1.03989 0 
1.11128 1.0093 0 
1.14127 -0.783712 0 
1.96288 -0.89784 0 
-1.08473 0.85107 0 
-1.88925 0.887796 0 
1.9724 0.874576 0 
1.17756 0.883877 0 
-1.12218 -0.869208 0 
-1.89155 -0.918677 0 
0.547546 -0.873274 0 
0.569095 0.141849 0 
-0.601939 -0.960675 0 
-0.558228 0.0195774 0 
-0.480272 0.951399 0 
-0.48863 0.0202068 0 
-1.04653 -0.89344 0.0
-0.627135 -0.909279 0.0
-0.587796 -0.0270521 0.0
-1.03928 0.00681194 0.0
-1.11202 -0.0791369 0.0
-1.09535 -0.826959 0.0
0.016741 -0.998502 0.0
0.0650511 -1.68425 0.0
0.956702 -1.68669 0.0
1.02812 -0.897092 0.0
0.544829 -0.915215 0.0
0.0763058 -0.927718 0.0
0.016649 0.919801 0.0
-0.451996 0.904133 0.0
-0.459519 0.0660597 0.0
-0.0784744 0.0383666 0.0
0.108605 0.21637 0.0
0.146016 0.995648 0.0
0.0978917 0.931676 0.0
0.189848 0.228245 0.0
0.573677 0.187412 0.0
1.03584 0.16714 0.0
1.1213 0.855237 0.0
1.06164 0.968118 0.0
1.17278 -0.831103 0.0
1.12172 -0.893585 0.0
1.05031 -1.68318 0.0
1.78883 -1.60898 0.0
1.91223 -0.933818 0.0
-1.10184 0.0938455 0.0
-1.12421 0.808325 0.0
-1.84827 0.841378 0.0
-1.83784 0.0366459 0.0
-1.17458 0.00789666 0.0
-1.16134 -0.828422 0.0
-1.17801 -0.0805999 0.0
-1.84128 -0.0518507 0.0
-1.85378 -0.872944 0.0
1.91219 0.0728187 0.0
1.9296 0.832076 0.0
1.21424 0.840447 0.0
1.12879 0.15235 0.0
1.18879 0.0722692 0.0
0.051316 -0.83357 0.0
0.519839 -0.821067 0.0
0.539233 0.0925446 0.0
0.155404 0.133377 0.0
-0.0316755 -0.0446268 0.0
-1.01429 -0.983344 0.0
-0.970838 -1.69815 0.0
-0.040131 -1.68956 0.0
-0.0884411 -1.00381 0.0
-0.59489 -0.999184 0.0
-0.0110261 1.00506 0.0
0.0370985 1.06903 0.0
-0.00405614 1.68218 0.0
-0.93003 1.68827 0.0
-0.976832 0.962184 0.0
-0.479671 0.989393 0.0
0.103918 1.68728 0.0
0.145073 1.07414 0.0
1.0607 1.04661 0.0
1.08922 1.70587 0.0
1.19039 -0.0134146 0.0
1.18319 -0.746067 0.0
1.92263 -0.848782 0.0
1.91379 -0.0128651 0.0
-1.117 0.893236 0.0
-1.07014 0.956323 0.0
-1.02334 1.68241 0.0
-1.71866 1.61468 0.0
-1.84106 0.926289 0.0
1.92643 0.915147 0.0
1.80454 1.63233 0.0
1.17994 1.69567 0.0
1.15142 1.0364 0.0
1.21107 0.923518 0.0
-1.10421 -0.977755 0.0
-1.15303 -0.911274 0.0
-1.84547 -0.955796 0.0
-1.74086 -1.62143 0.0
-1.06076 -1.69256 0.0
0.577509 -0.822837 0.0
1.0608 -0.804713 0.0
1.11186 -0.742231 0.0
1.11907 -0.00957816 0.0
1.05907 0.0705023 0.0
0.596903 0.0907746 0.0
-0.57176 -0.914278 0.0
-0.0653104 -0.918904 0.0
-0.00574564 -0.84812 0.0
-0.0887372 -0.0591772 0.0
-0.469781 -0.0314841 0.0
-0.53242 -0.0320505 0.0
-0.509633 0.905122 0.0
-1.00679 0.877913 0.0
-1.05365 0.814826 0.0
-1.03128 0.100347 0.0
-0.579794 0.066483 0.0
-0.517156 0.0670494 0.0
</DataArray>
</Points>
<Cells>
<DataArray type="Int32" Name="connectivity" format="ascii">
20 36 41 40 36 37 42 41 37 12 43 42 12 14 44 43 14 32 45 44 32 20 40 45 21 4 47 46 4 10 48 47 10 19 49 48 19 34 50 49 34 18 51 50 18 21 46 51 22 38 53 52 38 39 54 53 39 6 55 54 6 8 56 55 8 22 52 56 24 22 58 57 22 8 59 58 8 35 60 59 35 17 61 60 17 31 62 61 31 25 63 62 25 24 57 63 26 19 65 64 19 10 66 65 10 1 67 66 1 27 68 67 27 26 64 68 12 28 70 69 28 29 71 70 29 7 72 71 7 14 73 72 14 12 69 73 32 14 75 74 14 7 76 75 7 33 77 76 33 32 74 77 9 30 79 78 30 31 80 79 31 17 81 80 17 11 82 81 11 9 78 82 18 34 84 83 34 35 85 84 35 8 86 85 8 6 87 86 6 18 83 87 20 15 89 88 15 4 90 89 4 21 91 90 21 36 92 91 36 20 88 92 22 24 94 93 24 5 95 94 5 13 96 95 13 23 97 96 23 38 98 97 38 22 93 98 5 24 100 99 24 25 101 100 25 16 102 101 16 5 99 102 11 26 104 103 26 27 105 104 27 9 106 105 9 11 103 106 28 23 108 107 23 13 109 108 13 2 110 109 2 29 111 110 29 28 107 111 30 3 113 112 3 16 114 113 16 25 115 114 25 31 116 115 31 30 112 116 20 32 118 117 32 33 119 118 33 0 120 119 0 15 121 120 15 20 117 121 34 19 123 122 19 26 124 123 26 11 125 124 11 17 126 125 17 35 127 126 35 34 122 127 36 21 129 128 21 18 130 129 18 6 131 130 6 39 132 131 39 37 133 132 37 36 128 133 38 23 135 134 23 28 136 135 28 12 137 136 12 37 138 137 37 39 139 138 39 38 134 139 
</DataArray>
<DataArray type="Int32" Name="offsets" format="ascii">
4 8 12 16 20 24 28 32 36 40 44 48 52 56 60 64 68 72 76 80 84 88 92 96 100 104 108 112 116 120 124 128 132 136 140 144 148 152 156 160 164 168 172 176 180 184 188 192 196 200 204 208 212 216 220 224 228 232 236 240 244 248 252 256 260 264 268 272 276 280 284 288 292 296 300 304 308 312 316 320 324 328 332 336 340 344 348 352 356 360 364 368 372 376 380 384 388 392 396 400 
</DataArray>
<DataArray type="UInt8" Name="types" format="ascii">
7 7 7 7 7 7 7 7 7 7 7 7 7 7 7 7 7 7 7 7 7 7 7 7 7 7 7 7 7 7 7 7 7 7 7 7 7 7 7 7 7 7 7 7 7 7 7 7 7 7 7 7 7 7 7 7 7 7 7 7 7 7 7 7 7 7 7 7 7 7 7 7 7 7 7 7 7 7 7 7 7 7 7 7 7 7 7 7 7 7 7 7 7 7 7 7 7 7 7 7 
</DataArray>
</Cells>
<CellData Scalars="wall variable 0">
<DataArray type="Float64" Name="wall length" format="ascii">
0.399575 0.944602 0.40813 0.0976406 0.678649 0.0748602 0.668833 0.807365 0.778989 0.455031 0.43578 0.081959 0.440415 0.901419 0.33928 0.219434 0.639363 0.0717495 0.639363 0.3415 0.41433 0.629175 0.117274 0.879476 0.072603 0.778989 0.710004 0.65898 0.749413 0.646013 0.72975 0.7414 0.648197 0.0976406 0.678649 0.648197 0.758625 0.704658 0.699682 0.726845 0.629175 0.0860312 0.706577 0.43578 0.958 0.3415 0.219434 0.714708 0.706331 0.847976 0.668833 0.477132 0.399575 0.0717495 0.599254 0.840556 0.717121 0.47133 0.440415 0.599254 0.879476 0.652579 0.900313 0.659551 0.749413 0.771615 0.706577 0.071019 0.717121 0.669594 0.672983 0.72975 0.700196 0.602439 0.652579 0.117274 0.726845 0.0748602 0.704658 0.649285 0.657534 0.706331 0.455031 0.072603 0.659551 0.0860312 0.41433 0.958 0.477132 0.081959 0.714708 0.33928 0.055968 0.944602 0.47133 0.071019 0.646013 0.40813 0.055968 0.901419 
</DataArray>
<DataArray type="Float64" Name="wall variable 0" format="ascii">
0 0 0 0 0 0 0 0 0 0 0 0 0 0 0 0 0 0 0 0 0 0 0 0 0 0 0 0 0 0 0 0 0 0 0 0 0 0 0 0 0 0 0 0 0 0 0 0 0 0 0 0 0 0 0 0 0 0 0 0 0 0 0 0 0 0 0 0 0 0 0 0 0 0 0 0 0 0 0 0 0 0 0 0 0 0 0 0 0 0 0 0 0 0 0 0 0 0 0 0 
</DataArray>
<DataArray type="Float64" Name="wall variable 1" format="ascii">
0 0 0 0 0 0 0 0 0 0 0 0 0 0 0 0 0 0 0 0 0 0 0 0 0 0 0 0 0 0 0 0 0 0 0 0 0 0 0 0 0 0 0 0 0 0 0 0 0 0 0 0 0 0 0 0 0 0 0 0 0 0 0 0 0 0 0 0 0 0 0 0 0 0 0 0 0 0 0 0 0 0 0 0 0 0 0 0 0 0 0 0 0 0 0 0 0 0 0 0 
</DataArray>
</CellData>
</Piece>
</UnstructuredGrid>
</VTKFile>
