<VTKFile type="UnstructuredGrid" version="0.1">
<UnstructuredGrid>
<Piece  NumberOfPoints="     256" NumberOfCells="      47">
<Points>
<DataArray type="Float64" NumberOfComponents="3" format="ascii">
-2.0368 -0.068858 0.0
-2.04243 -0.657471 0.0
-1.17923 -0.702695 0.0
-1.1192 0.011122 0.0
-1.90449 0.106423 0.0
0.0012321 -2.24692 0.0
0.0351967 -2.69489 0.0
0.871825 -2.71788 0.0
0.862809 -2.14845 0.0
0.000452527 -2.19541 0.0
0.187834 0.407774 0.0
0.0685319 0.903865 0.0
-0.861317 0.843677 0.0
-0.891173 0.166501 0.0
-0.185564 0.0565468 0.0
0.207868 1.05687 0.0
0.173967 0.927602 0.0
0.293269 0.431512 0.0
0.514436 0.393279 0.0
1.00805 0.308002 0.0
1.08685 0.364759 0.0
1.10298 1.04647 0.0
1.06898 1.11992 0.0
1.95052 -2.17187 0.0
1.7976 -2.65618 0.0
2.88648 -2.52785 0.0
3.04407 -2.15758 0.0
2.01322 -2.02173 0.0
-2.00024 0.176574 0.0
-2.0884 0.765622 0.0
-3.09507 0.735819 0.0
-3.05683 0.0686692 0.0
-2.13256 0.00129295 0.0
-2.14543 -0.664945 0.0
-2.1398 -0.0763316 0.0
-3.06407 -0.00895535 0.0
-3.10884 -0.717892 0.0
-2.17039 -0.725774 0.0
3.15216 0.155371 0.0
3.20104 0.768896 0.0
2.17476 0.852739 0.0
2.02693 0.307284 0.0
2.1379 0.139161 0.0
-0.0297974 -0.830347 0.0
0.0789145 -1.45755 0.0
0.865802 -1.46819 0.0
0.942664 -1.41111 0.0
0.998928 -0.685827 0.0
0.954152 -0.612327 0.0
0.444862 -0.639518 0.0
0.0283396 -0.66166 0.0
-1.90716 -2.001 0.0
-1.86718 -2.16417 0.0
-1.03818 -2.07028 0.0
-1.03396 -1.66989 0.0
-1.15666 -1.5908 0.0
-1.87402 -1.62203 0.0
0.128464 1.87784 0.0
0.0810982 2.30295 0.0
-0.799559 2.24851 0.0
-0.804636 2.1886 0.0
-0.776366 1.77221 0.0
0.0061448 1.7746 0.0
1.01196 2.81724 0.0
0.130398 2.77274 0.0
0.174233 2.33665 0.0
0.221599 1.91154 0.0
0.996897 1.91584 0.0
3.11025 -1.40629 0.0
3.18446 -0.693587 0.0
2.1648 -0.695787 0.0
2.09132 -1.30905 0.0
-1.91466 1.69444 0.0
-1.96111 2.08051 0.0
-2.96212 2.21104 0.0
-3.00825 1.57972 0.0
-2.01103 1.58038 0.0
3.12691 1.57945 0.0
3.07658 2.19795 0.0
2.08091 2.11137 0.0
2.00801 1.81787 0.0
2.15059 1.63445 0.0
-2.97377 -2.17998 0.0
-2.83514 -2.53977 0.0
-1.8476 -2.65692 0.0
-1.95685 -2.21305 0.0
-1.99683 -2.04988 0.0
2.05468 -0.696465 0.0
2.02682 -0.632555 0.0
1.10396 -0.685387 0.0
1.04769 -1.41067 0.0
1.87831 -1.42541 0.0
1.9812 -1.30973 0.0
-0.0269393 -1.47763 0.0
-0.135651 -0.850426 0.0
-1.02921 -0.883215 0.0
-1.06506 -1.52823 0.0
-0.942367 -1.60731 0.0
-0.166811 -1.60164 0.0
-1.00634 0.992112 0.0
-0.964033 1.64676 0.0
-1.8113 1.63903 0.0
-1.90767 1.52497 0.0
-1.93904 0.962964 0.0
1.1955 1.04278 0.0
1.17937 0.361069 0.0
1.92507 0.329488 0.0
2.0729 0.874943 0.0
2.04359 1.03031 0.0
0.960446 -1.54256 0.0
0.984041 -2.01733 0.0
1.85643 -2.11622 0.0
1.91912 -1.96607 0.0
1.86792 -1.50021 0.0
1.03731 -1.48547 0.0
-0.879929 1.76614 0.0
-0.9082 2.18253 0.0
-1.7998 2.25912 0.0
-1.85007 2.09093 0.0
-1.80362 1.70486 0.0
-0.956355 1.71259 0.0
-0.0613788 -2.6996 0.0
-0.0953434 -2.25163 0.0
-0.941362 -2.25067 0.0
-0.942005 -2.72982 0.0
1.89446 2.75781 0.0
1.10394 2.81289 0.0
1.08887 1.91149 0.0
1.16544 1.86305 0.0
1.8989 1.86178 0.0
1.9718 2.15528 0.0
-2.08848 0.843193 0.0
-2.04894 0.948988 0.0
-2.01758 1.51099 0.0
-3.0148 1.51034 0.0
-3.09515 0.81339 0.0
3.20548 0.842006 0.0
3.13323 1.51219 0.0
2.15691 1.56719 0.0
2.1499 1.08122 0.0
2.1792 0.925849 0.0
3.18516 -0.618374 0.0
3.15572 0.0800847 0.0
2.14146 0.0638753 0.0
2.13764 -0.556665 0.0
2.1655 -0.620574 0.0
-0.00157172 -0.571267 0.0
0.414951 -0.549125 0.0
0.466614 0.306162 0.0
0.245447 0.344394 0.0
-0.12795 -0.00683347 0.0
1.97845 -1.49442 0.0
2.02965 -1.96028 0.0
3.0605 -2.09613 0.0
3.10027 -1.47597 0.0
2.08135 -1.37874 0.0
2.02591 -0.545603 0.0
2.02973 0.0749365 0.0
1.91875 0.243059 0.0
1.17306 0.274641 0.0
1.09425 0.217884 0.0
1.05827 -0.524935 0.0
1.10305 -0.598436 0.0
-2.09298 -1.43588 0.0
-2.16864 -0.799529 0.0
-3.10709 -0.791647 0.0
-3.03715 -1.45625 0.0
0.0644154 0.98582 0.0
0.0983159 1.11509 0.0
-0.00169015 1.70378 0.0
-0.784201 1.70139 0.0
-0.860626 1.64784 0.0
-0.902933 0.993199 0.0
-0.865434 0.925633 0.0
-0.140288 -0.765597 0.0
-0.0821513 -0.59691 0.0
-0.20853 -0.0324761 0.0
-0.914139 0.0774781 0.0
-1.02057 0.00292886 0.0
-1.0806 -0.710888 0.0
-1.03385 -0.798386 0.0
-0.968636 0.8465 0.0
-1.00614 0.914065 0.0
-1.93884 0.884918 0.0
-1.97837 0.779123 0.0
-1.89021 0.190075 0.0
-1.10493 0.094774 0.0
-0.998492 0.169323 0.0
-2.04255 -0.740399 0.0
-2.06752 -0.801228 0.0
-1.99185 -1.43758 0.0
-1.88581 -1.54936 0.0
-1.16845 -1.51813 0.0
-1.1326 -0.87312 0.0
-1.17935 -0.785622 0.0
-1.94475 2.13901 0.0
-1.89447 2.30719 0.0
-1.77332 2.7542 0.0
-2.79248 2.63694 0.0
-2.94576 2.26954 0.0
0.100179 1.72177 0.0
0.200186 1.13309 0.0
1.0613 1.19613 0.0
1.07436 1.78088 0.0
0.997797 1.82931 0.0
0.222499 1.82502 0.0
3.0641 2.25592 0.0
2.90348 2.66869 0.0
1.99109 2.77187 0.0
2.06843 2.16934 0.0
-3.029 -1.52263 0.0
-2.98888 -2.12312 0.0
-2.01193 -1.99301 0.0
-1.97879 -1.61404 0.0
-2.08483 -1.50226 0.0
1.16125 1.18988 0.0
1.19525 1.11643 0.0
2.04333 1.10396 0.0
2.05035 1.58993 0.0
1.90777 1.77336 0.0
1.17431 1.77462 0.0
0.974255 -2.07881 0.0
0.952447 -2.1444 0.0
0.961462 -2.71383 0.0
1.69372 -2.662 0.0
1.84664 -2.1777 0.0
-0.0696807 -1.66045 0.0
-0.00349112 -2.1344 0.0
0.858866 -2.08745 0.0
0.880673 -2.02185 0.0
0.857079 -1.54708 0.0
0.070191 -1.53643 0.0
-0.900879 2.2384 0.0
-0.895801 2.29831 0.0
-0.915645 2.8177 0.0
-1.67133 2.762 0.0
-1.79248 2.31499 0.0
0.0757211 2.35697 0.0
0.0318856 2.79305 0.0
-0.824779 2.82191 0.0
-0.804936 2.30253 0.0
-1.85957 -2.2203 0.0
-1.75032 -2.66417 0.0
-1.03049 -2.72399 0.0
-1.02985 -2.24484 0.0
-1.03058 -2.1264 0.0
-0.0972649 -2.19713 0.0
-0.0980445 -2.14562 0.0
-0.164234 -1.67167 0.0
-0.93979 -1.67734 0.0
-0.944011 -2.07774 0.0
-0.943283 -2.19617 0.0
0.468929 -0.549385 0.0
0.978218 -0.522194 0.0
1.0142 0.220625 0.0
0.520591 0.305902 0.0
</DataArray>
</Points>
<Cells>
<DataArray type="Int32" Name="connectivity" format="ascii">
0 1 2 3 4 
5 6 7 8 9 
10 11 12 13 14 
15 16 17 18 19 20 21 22 
23 24 25 26 27 
28 29 30 31 32 
33 34 35 36 37 
38 39 40 41 42 
43 44 45 46 47 48 49 50 
51 52 53 54 55 56 
57 58 59 60 61 62 
63 64 65 66 67 
68 69 70 71 
72 73 74 75 76 
77 78 79 80 81 
82 83 84 85 86 
87 88 89 90 91 92 
93 94 95 96 97 98 
99 100 101 102 103 
104 105 106 107 108 
109 110 111 112 113 114 
115 116 117 118 119 120 
121 122 123 124 
125 126 127 128 129 130 
131 132 133 134 135 
136 137 138 139 140 
141 142 143 144 145 
146 147 148 149 150 
151 152 153 154 155 
156 157 158 159 160 161 162 
163 164 165 166 
167 168 169 170 171 172 173 
174 175 176 177 178 179 180 
181 182 183 184 185 186 187 
188 189 190 191 192 193 194 
195 196 197 198 199 
200 201 202 203 204 205 
206 207 208 209 
210 211 212 213 214 
215 216 217 218 219 220 
221 222 223 224 225 
226 227 228 229 230 231 
232 233 234 235 236 
237 238 239 240 
241 242 243 244 245 
246 247 248 249 250 251 
252 253 254 255 
</DataArray>
<DataArray type="Int32" Name="offsets" format="ascii">
5 10 15 23 28 33 38 43 51 57 63 68 72 77 82 87 93 99 104 109 115 121 125 131 136 141 146 151 156 163 167 174 181 188 195 200 206 210 215 221 226 232 237 241 246 252 256 
</DataArray>
<DataArray type="UInt8" Name="types" format="ascii">
7 7 7 7 7 7 7 7 7 7 7 7 7 7 7 7 7 7 7 7 7 7 7 7 7 7 7 7 7 7 7 7 7 7 7 7 7 7 7 7 7 7 7 7 7 7 7 
</DataArray>
</Cells>
<CellData Scalars="cell variable 4" Vectors="cell vector">
<DataArray type="Float64" NumberOfComponents="3" Name="cell vector" format="ascii">
0 1 1
0 1 1
0 1 1
0 1 1
0 1 1
0 1 1
0 1 1
0 1 1
0 1 1
0 1 1
0 1 1
0 1 1
0 1 1
0 1 1
0 1 1
0 1 1
0 1 1
0 1 1
0 1 1
0 1 1
0 1 1
0 1 1
0 1 1
0 1 1
0 1 1
0 1 1
0 1 1
0 1 1
0 1 1
0 1 1
0 1 1
0 1 1
0 1 1
0 1 1
0 1 1
0 1 1
0 1 1
0 1 1
0 1 1
0 1 1
0 1 1
0 1 1
0 1 1
0 1 1
0 1 1
0 1 1
0 1 1
</DataArray>
<DataArray type="Float64" Name="cell vector length" format="ascii">
0.0166331 0.0158734 0.0162357 0.0142376 0.0335486 0.0314001 0.0298815 0.0316085 0.0165572 0.0159227 0.0151643 0.0283555 0.0312366 0.0315349 0.030528 0.0301485 0.0162655 0.017068 0.0149258 0.0140381 0.0168507 0.0162469 0.0151805 0.0294702 0.0312399 0.0310082 0.0311773 0.00869649 0.0343024 0.0169273 0.0300517 0.0156341 0.0163066 0.016314 0.0170607 0.0308792 0.014818 0.0295468 0.0307427 0.0142565 0.0160336 0.0161594 0.0155161 0.0147812 0.015296 0.0158358 0.00850399 
</DataArray>
<DataArray type="Float64" Name="cell variable 4" format="ascii">
0 0 0 0 0 0 0 0 0 0 0 0 0 0 0 0 0 0 0 0 0 0 0 0 0 0 0 0 0 0 0 0 0 0 0 0 0 0 0 0 0 0 0 0 0 0 0 
</DataArray>
<DataArray type="Float64" Name="cell variable 5" format="ascii">
0 0 0 0 0 0 0 0 0 0 0 0 0 0 0 0 0 0 0 0 0 0 0 0 0 0 0 0 0 0 0 0 0 0 0 0 0 0 0 0 0 0 0 0 0 0 0 
</DataArray>
<DataArray type="Float64" Name="cell variable 6" format="ascii">
0 0 0 0 0 0 0 0 0 0 0 0 0 0 0 0 0 0 0 0 0 0 0 0 0 0 0 0 0 0 0 0 0 0 0 0 0 0 0 0 0 0 0 0 0 0 0 
</DataArray>
<DataArray type="Float64" Name="cell variable 7" format="ascii">
0 0 0 0 0 0 0 0 0 0 0 0 0 0 0 0 0 0 0 0 0 0 0 0 0 0 0 0 0 0 0 0 0 0 0 0 0 0 0 0 0 0 0 0 0 0 0 
</DataArray>
<DataArray type="Float64" Name="cell variable 8" format="ascii">
0 0 0 0 0 0 0 0 0 0 0 0 0 0 0 0 0 0 0 0 0 0 0 0 0 0 0 0 0 0 0 0 0 0 0 0 0 0 0 0 0 0 0 0 0 0 0 
</DataArray>
</CellData>
</Piece>
</UnstructuredGrid>
</VTKFile>
